 Entering Link 1 = C:\G09W\l1.exe PID=       652.
  
 Copyright (c) 1988,1990,1992,1993,1995,1998,2003,2009, Gaussian, Inc.
                  All Rights Reserved.
  
 This is part of the Gaussian(R) 09 program.  It is based on
 the Gaussian(R) 03 system (copyright 2003, Gaussian, Inc.),
 the Gaussian(R) 98 system (copyright 1998, Gaussian, Inc.),
 the Gaussian(R) 94 system (copyright 1995, Gaussian, Inc.),
 the Gaussian 92(TM) system (copyright 1992, Gaussian, Inc.),
 the Gaussian 90(TM) system (copyright 1990, Gaussian, Inc.),
 the Gaussian 88(TM) system (copyright 1988, Gaussian, Inc.),
 the Gaussian 86(TM) system (copyright 1986, Carnegie Mellon
 University), and the Gaussian 82(TM) system (copyright 1983,
 Carnegie Mellon University). Gaussian is a federally registered
 trademark of Gaussian, Inc.
  
 This software contains proprietary and confidential information,
 including trade secrets, belonging to Gaussian, Inc.
  
 This software is provided under written license and may be
 used, copied, transmitted, or stored only in accord with that
 written license.
  
 The following legend is applicable only to US Government
 contracts under FAR:
  
                    RESTRICTED RIGHTS LEGEND
  
 Use, reproduction and disclosure by the US Government is
 subject to restrictions as set forth in subparagraphs (a)
 and (c) of the Commercial Computer Software - Restricted
 Rights clause in FAR 52.227-19.
  
 Gaussian, Inc.
 340 Quinnipiac St., Bldg. 40, Wallingford CT 06492
  
  
 ---------------------------------------------------------------
 Warning -- This program may not be used in any manner that
 competes with the business of Gaussian, Inc. or will provide
 assistance to any competitor of Gaussian, Inc.  The licensee
 of this program is prohibited from giving any competitor of
 Gaussian, Inc. access to this program.  By using this program,
 the user acknowledges that Gaussian, Inc. is engaged in the
 business of creating and licensing software in the field of
 computational chemistry and represents and warrants to the
 licensee that it is not a competitor of Gaussian, Inc. and that
 it will not use this program in any manner prohibited above.
 ---------------------------------------------------------------
  

 Cite this work as:
 Gaussian 09, Revision A.02,
 M. J. Frisch, G. W. Trucks, H. B. Schlegel, G. E. Scuseria, 
 M. A. Robb, J. R. Cheeseman, G. Scalmani, V. Barone, B. Mennucci, 
 G. A. Petersson, H. Nakatsuji, M. Caricato, X. Li, H. P. Hratchian, 
 A. F. Izmaylov, J. Bloino, G. Zheng, J. L. Sonnenberg, M. Hada, 
 M. Ehara, K. Toyota, R. Fukuda, J. Hasegawa, M. Ishida, T. Nakajima, 
 Y. Honda, O. Kitao, H. Nakai, T. Vreven, J. A. Montgomery, Jr., 
 J. E. Peralta, F. Ogliaro, M. Bearpark, J. J. Heyd, E. Brothers, 
 K. N. Kudin, V. N. Staroverov, R. Kobayashi, J. Normand, 
 K. Raghavachari, A. Rendell, J. C. Burant, S. S. Iyengar, J. Tomasi, 
 M. Cossi, N. Rega, J. M. Millam, M. Klene, J. E. Knox, J. B. Cross, 
 V. Bakken, C. Adamo, J. Jaramillo, R. Gomperts, R. E. Stratmann, 
 O. Yazyev, A. J. Austin, R. Cammi, C. Pomelli, J. W. Ochterski, 
 R. L. Martin, K. Morokuma, V. G. Zakrzewski, G. A. Voth, 
 P. Salvador, J. J. Dannenberg, S. Dapprich, A. D. Daniels, 
 O. Farkas, J. B. Foresman, J. V. Ortiz, J. Cioslowski, 
 and D. J. Fox, Gaussian, Inc., Wallingford CT, 2009.
 
 ******************************************
 Gaussian 09:  IA32W-G09RevA.02 11-Jun-2009
                09-May-2024 
 ******************************************
 %chk=C:\Users\Gaming\PycharmProjects\computationalChemistryProj1\inputFiles\ff.c
 hk
 ----------------------------------------------
 # wb97xd/dgdzvp2/auto sparse geom=connectivity
 ----------------------------------------------
 1/38=1,57=2/1;
 2/12=2,17=6,18=5,40=1/2;
 3/5=27,6=2,11=2,16=1,25=1,30=1,47=2048,55=-1,74=-58,82=28/1,2,3;
 4/47=1/1;
 5/5=2,38=5/2;
 6/7=2,8=2,9=2,10=2,28=1/1;
 99/5=1,9=1/99;
 -------------------
 Title Card Required
 -------------------
 Symbolic Z-matrix:
 Charge =  0 Multiplicity = 3
 C                    -1.42857   0.45113   0. 
 H                    -1.07192  -0.55768   0. 
 H                    -1.0719    0.95553   0.87365 
 H                    -1.0719    0.95553  -0.87365 
 H                    -2.49857   0.45114   0. 
 C                     3.36466   1.76692   0. 
 H                     3.72132   0.75811   0. 
 H                     3.72133   2.27132   0.87365 
 H                     3.72133   2.27132  -0.87365 
 H                     2.29466   1.76693   0. 
 
                          Input orientation:                          
 ---------------------------------------------------------------------
 Center     Atomic      Atomic             Coordinates (Angstroms)
 Number     Number       Type             X           Y           Z
 ---------------------------------------------------------------------
      1          6           0       -1.428571    0.451128    0.000000
      2          1           0       -1.071917   -0.557682    0.000000
      3          1           0       -1.071899    0.955526    0.873652
      4          1           0       -1.071899    0.955526   -0.873652
      5          1           0       -2.498571    0.451141    0.000000
      6          6           0        3.364662    1.766917    0.000000
      7          1           0        3.721316    0.758107    0.000000
      8          1           0        3.721334    2.271315    0.873652
      9          1           0        3.721334    2.271315   -0.873652
     10          1           0        2.294662    1.766930    0.000000
 ---------------------------------------------------------------------
                    Distance matrix (angstroms):
                    1          2          3          4          5
     1  C    0.000000
     2  H    1.070000   0.000000
     3  H    1.070000   1.747302   0.000000
     4  H    1.070000   1.747302   1.747303   0.000000
     5  H    1.070000   1.747303   1.747303   1.747303   0.000000
     6  C    4.970552   5.008692   4.593984   4.593984   6.009057
     7  H    5.159029   4.970552   4.876182   4.876182   6.227458
     8  H    5.531535   5.633982   4.970552   5.268724   6.539383
     9  H    5.531535   5.633982   5.268724   4.970552   6.539383
    10  H    3.948899   4.091170   3.571466   3.571466   4.970552
                    6          7          8          9         10
     6  C    0.000000
     7  H    1.070000   0.000000
     8  H    1.070000   1.747302   0.000000
     9  H    1.070000   1.747302   1.747303   0.000000
    10  H    1.070000   1.747303   1.747303   1.747303   0.000000
 This structure is nearly, but not quite of a higher symmetry.
 Consider Symm=Loose if the higher symmetry is desired.
 Stoichiometry    C2H8(3)
 Framework group  CS[SG(C2H4),X(H4)]
 Deg. of freedom    15
 Full point group                 CS      NOp   2
 Largest Abelian subgroup         CS      NOp   2
 Largest concise Abelian subgroup CS      NOp   2
                         Standard orientation:                         
 ---------------------------------------------------------------------
 Center     Atomic      Atomic             Coordinates (Angstroms)
 Number     Number       Type             X           Y           Z
 ---------------------------------------------------------------------
      1          6           0        0.000000    2.485276    0.000000
      2          1           0       -1.067234    2.408394    0.000000
      3          1           0        0.391987    2.007804    0.873652
      4          1           0        0.391987    2.007804   -0.873652
      5          1           0        0.283260    3.517101    0.000000
      6          6           0        0.000000   -2.485276    0.000000
      7          1           0       -1.067234   -2.562158    0.000000
      8          1           0        0.391987   -2.962748    0.873651
      9          1           0        0.391987   -2.962748   -0.873651
     10          1           0        0.283260   -1.453450    0.000000
 ---------------------------------------------------------------------
 Rotational constants (GHZ):     82.1231778      2.4750229      2.4750228
 Standard basis: DGDZVP2 (5D, 7F)
 There are    46 symmetry adapted basis functions of A'  symmetry.
 There are    22 symmetry adapted basis functions of A"  symmetry.
 Integral buffers will be    262144 words long.
 Raffenetti 2 integral format.
 Two-electron integral symmetry is turned on.
    68 basis functions,   132 primitive gaussians,    70 cartesian basis functions
    11 alpha electrons        9 beta electrons
       nuclear repulsion energy        38.0218299155 Hartrees.
 NAtoms=   10 NActive=   10 NUniq=    8 SFac= 1.17D+00 NAtFMM=   80 NAOKFM=F Big=F
 Nuclear repulsion after empirical dispersion term =       38.0208462077 Hartrees.
 Standard density basis: Auto (5D, 7F)
   376 Density fitting functions
 There are   376 symmetry adapted density basis functions of A   symmetry.
 One-electron integrals computed using PRISM.
 DoSpar and Pure in OneElI.
 Error termination via Lnk1e in C:\G09W\l302.exe at Thu May 09 08:52:44 2024.
 Job cpu time:  0 days  0 hours  0 minutes  0.0 seconds.
 File lengths (MBytes):  RWF=      5 Int=      0 D2E=      0 Chk=      1 Scr=      1
