 Entering Gaussian System, Link 0=g16
 Input=inputFiles/Test3.com
 Output=inputFiles/Test3.log
 Initial command:
 /home/mark/gaussian/g16/l1.exe "/home/mark/gaussian/scratch/Gau-1656.inp" -scrdir="/home/mark/gaussian/scratch/"
 Entering Link 1 = /home/mark/gaussian/g16/l1.exe PID=      1658.
  
 Copyright (c) 1988,1990,1992,1993,1995,1998,2003,2009,2016,
            Gaussian, Inc.  All Rights Reserved.
  
 This is part of the Gaussian(R) 16 program.  It is based on
 the Gaussian(R) 09 system (copyright 2009, Gaussian, Inc.),
 the Gaussian(R) 03 system (copyright 2003, Gaussian, Inc.),
 the Gaussian(R) 98 system (copyright 1998, Gaussian, Inc.),
 the Gaussian(R) 94 system (copyright 1995, Gaussian, Inc.),
 the Gaussian 92(TM) system (copyright 1992, Gaussian, Inc.),
 the Gaussian 90(TM) system (copyright 1990, Gaussian, Inc.),
 the Gaussian 88(TM) system (copyright 1988, Gaussian, Inc.),
 the Gaussian 86(TM) system (copyright 1986, Carnegie Mellon
 University), and the Gaussian 82(TM) system (copyright 1983,
 Carnegie Mellon University). Gaussian is a federally registered
 trademark of Gaussian, Inc.
  
 This software contains proprietary and confidential information,
 including trade secrets, belonging to Gaussian, Inc.
  
 This software is provided under written license and may be
 used, copied, transmitted, or stored only in accord with that
 written license.
  
 The following legend is applicable only to US Government
 contracts under FAR:
  
                    RESTRICTED RIGHTS LEGEND
  
 Use, reproduction and disclosure by the US Government is
 subject to restrictions as set forth in subparagraphs (a)
 and (c) of the Commercial Computer Software - Restricted
 Rights clause in FAR 52.227-19.
  
 Gaussian, Inc.
 340 Quinnipiac St., Bldg. 40, Wallingford CT 06492
  
  
 ---------------------------------------------------------------
 Warning -- This program may not be used in any manner that
 competes with the business of Gaussian, Inc. or will provide
 assistance to any competitor of Gaussian, Inc.  The licensee
 of this program is prohibited from giving any competitor of
 Gaussian, Inc. access to this program.  By using this program,
 the user acknowledges that Gaussian, Inc. is engaged in the
 business of creating and licensing software in the field of
 computational chemistry and represents and warrants to the
 licensee that it is not a competitor of Gaussian, Inc. and that
 it will not use this program in any manner prohibited above.
 ---------------------------------------------------------------
  

 Cite this work as:
 Gaussian 16, Revision A.03,
 M. J. Frisch, G. W. Trucks, H. B. Schlegel, G. E. Scuseria, 
 M. A. Robb, J. R. Cheeseman, G. Scalmani, V. Barone, 
 G. A. Petersson, H. Nakatsuji, X. Li, M. Caricato, A. V. Marenich, 
 J. Bloino, B. G. Janesko, R. Gomperts, B. Mennucci, H. P. Hratchian, 
 J. V. Ortiz, A. F. Izmaylov, J. L. Sonnenberg, D. Williams-Young, 
 F. Ding, F. Lipparini, F. Egidi, J. Goings, B. Peng, A. Petrone, 
 T. Henderson, D. Ranasinghe, V. G. Zakrzewski, J. Gao, N. Rega, 
 G. Zheng, W. Liang, M. Hada, M. Ehara, K. Toyota, R. Fukuda, 
 J. Hasegawa, M. Ishida, T. Nakajima, Y. Honda, O. Kitao, H. Nakai, 
 T. Vreven, K. Throssell, J. A. Montgomery, Jr., J. E. Peralta, 
 F. Ogliaro, M. J. Bearpark, J. J. Heyd, E. N. Brothers, K. N. Kudin, 
 V. N. Staroverov, T. A. Keith, R. Kobayashi, J. Normand, 
 K. Raghavachari, A. P. Rendell, J. C. Burant, S. S. Iyengar, 
 J. Tomasi, M. Cossi, J. M. Millam, M. Klene, C. Adamo, R. Cammi, 
 J. W. Ochterski, R. L. Martin, K. Morokuma, O. Farkas, 
 J. B. Foresman, and D. J. Fox, Gaussian, Inc., Wallingford CT, 2016.
 
 ******************************************
 Gaussian 16:  ES64L-G16RevA.03 25-Dec-2016
                18-May-2024 
 ******************************************
 %NProcShared=1
 Will use up to    1 processors via shared memory.
 %chk=inputFiles/test3.chk
 --------------------
 # wb97xd/aug-cc-pvtz
 --------------------
 1/38=1,172=1/1;
 2/12=2,17=6,18=5,40=1/2;
 3/5=16,6=1,7=10,11=2,25=1,30=1,74=-58/1,2,3;
 4//1;
 5/5=2,38=5/2;
 6/7=2,8=2,9=2,10=2,28=1/1;
 99/5=1,9=1/99;
 ------
 Title3
 ------
 Symbolic Z-matrix:
 Charge =  0 Multiplicity = 1
 Si                   -3.49      4.59      3.97 
 Si                   -5.83      2.62      2.84 
 Si                   -5.99      3.03      2. 
 
                          Input orientation:                          
 ---------------------------------------------------------------------
 Center     Atomic      Atomic             Coordinates (Angstroms)
 Number     Number       Type             X           Y           Z
 ---------------------------------------------------------------------
      1         14           0       -3.490000    4.590000    3.970000
      2         14           0       -5.830000    2.620000    2.840000
      3         14           0       -5.990000    3.030000    2.000000
 ---------------------------------------------------------------------
                    Distance matrix (angstroms):
                    1          2          3
     1  Si   0.000000
     2  Si   3.260889   0.000000
     3  Si   3.544644   0.948314   0.000000
 Stoichiometry    Si3
 Framework group  CS[SG(Si3)]
 Deg. of freedom     3
 Full point group                 CS      NOp   2
 Largest Abelian subgroup         CS      NOp   2
 Largest concise Abelian subgroup C1      NOp   1
                         Standard orientation:                         
 ---------------------------------------------------------------------
 Center     Atomic      Atomic             Coordinates (Angstroms)
 Number     Number       Type             X           Y           Z
 ---------------------------------------------------------------------
      1         14           0        0.940905   -2.042025    0.000000
      2         14           0        0.000000    1.080170   -0.000000
      3         14           0       -0.940905    0.961855   -0.000000
 ---------------------------------------------------------------------
 Rotational constants (GHZ):          44.4549861           2.3687396           2.2489088
 Standard basis: Aug-CC-pVTZ (5D, 7F)
 There are   120 symmetry adapted cartesian basis functions of A'  symmetry.
 There are    57 symmetry adapted cartesian basis functions of A"  symmetry.
 There are    99 symmetry adapted basis functions of A'  symmetry.
 There are    51 symmetry adapted basis functions of A"  symmetry.
   150 basis functions,   345 primitive gaussians,   177 cartesian basis functions
    21 alpha electrons       21 beta electrons
       nuclear repulsion energy       170.4392628627 Hartrees.
 NAtoms=    3 NActive=    3 NUniq=    3 SFac= 1.00D+00 NAtFMM=   60 NAOKFM=F Big=F
 Integral buffers will be    131072 words long.
 Raffenetti 2 integral format.
 Two-electron integral symmetry is turned on.
 Nuclear repulsion after empirical dispersion term =      170.4386713108 Hartrees.
 One-electron integrals computed using PRISM.
 NBasis=   150 RedAO= T EigKep=  3.68D-06  NBF=    99    51
 NBsUse=   150 1.00D-06 EigRej= -1.00D+00 NBFU=    99    51
 ExpMin= 2.37D-02 ExpMax= 2.55D+05 ExpMxC= 2.46D+03 IAcc=3 IRadAn=         5 AccDes= 0.00D+00
 Harris functional with IExCor= 4639 and IRadAn=       5 diagonalized for initial guess.
 HarFok:  IExCor= 4639 AccDes= 0.00D+00 IRadAn=         5 IDoV= 1 UseB2=F ITyADJ=14
 ICtDFT=  3500011 ScaDFX=  1.000000  1.000000  1.000000  1.000000
 FoFCou: FMM=F IPFlag=           0 FMFlag=      100000 FMFlg1=           0
         NFxFlg=           0 DoJE=T BraDBF=F KetDBF=T FulRan=T
         wScrn=  0.000000 ICntrl=       500 IOpCl=  0 I1Cent=   200000004 NGrid=           0
         NMat0=    1 NMatS0=      1 NMatT0=    0 NMatD0=    1 NMtDS0=    0 NMtDT0=    0
 Petite list used in FoFCou.
 Initial guess orbital symmetries:
       Occupied  (A') (A') (A') (A') (A') (A') (A') (A') (A") (A")
                 (A') (A') (A") (A') (A') (A') (A') (A") (A') (A')
                 (A')
       Virtual   (A") (A') (A') (A') (A') (A") (A") (A') (A') (A')
                 (A') (A') (A") (A") (A") (A') (A') (A') (A') (A")
                 (A') (A") (A') (A') (A") (A') (A') (A') (A") (A")
                 (A') (A') (A") (A') (A") (A') (A') (A') (A') (A")
                 (A") (A') (A') (A") (A") (A') (A') (A") (A') (A')
                 (A") (A') (A') (A") (A') (A") (A') (A') (A") (A')
                 (A') (A") (A') (A") (A') (A") (A') (A') (A') (A")
                 (A') (A') (A") (A") (A') (A') (A") (A') (A') (A")
                 (A') (A") (A') (A') (A") (A') (A") (A') (A") (A')
                 (A') (A") (A') (A") (A') (A') (A') (A") (A') (A")
                 (A') (A") (A') (A") (A') (A") (A') (A") (A') (A')
                 (A') (A') (A") (A') (A') (A") (A') (A') (A") (A')
                 (A") (A') (A') (A') (A") (A') (A') (A') (A')
 The electronic state of the initial guess is 1-A'.
 Requested convergence on RMS density matrix=1.00D-08 within 128 cycles.
 Requested convergence on MAX density matrix=1.00D-06.
 Requested convergence on             energy=1.00D-06.
 No special actions if energy rises.
 SCF Done:  E(RwB97XD) =  -865.641056824     A.U. after   19 cycles
            NFock= 19  Conv=0.23D-08     -V/T= 1.9918

 **********************************************************************

            Population analysis using the SCF density.

 **********************************************************************

 Orbital symmetries:
       Occupied  (A') (A') (A') (A') (A') (A') (A') (A') (A") (A')
                 (A") (A') (A") (A') (A') (A') (A') (A") (A') (A')
                 (A')
       Virtual   (A") (A') (A') (A') (A') (A") (A') (A") (A') (A')
                 (A") (A') (A') (A") (A') (A") (A') (A') (A") (A')
                 (A') (A') (A") (A') (A') (A") (A') (A') (A") (A")
                 (A') (A') (A") (A') (A") (A') (A') (A') (A") (A')
                 (A") (A') (A') (A") (A') (A") (A') (A") (A') (A')
                 (A") (A') (A') (A") (A') (A") (A') (A') (A") (A')
                 (A') (A") (A') (A") (A') (A') (A") (A') (A') (A")
                 (A') (A') (A") (A") (A') (A') (A') (A") (A') (A")
                 (A') (A") (A") (A') (A') (A") (A') (A') (A") (A')
                 (A") (A') (A') (A") (A') (A") (A') (A') (A') (A")
                 (A') (A") (A') (A') (A") (A") (A') (A") (A') (A')
                 (A') (A') (A") (A') (A') (A") (A') (A') (A") (A')
                 (A') (A") (A') (A') (A") (A') (A') (A') (A')
 The electronic state is 1-A'.
 Alpha  occ. eigenvalues --  -66.51776 -66.51701 -66.34179  -6.05811  -5.58591
 Alpha  occ. eigenvalues --   -5.44151  -4.34020  -4.12467  -4.12423  -3.97932
 Alpha  occ. eigenvalues --   -3.97898  -3.83459  -3.79052  -3.79014  -3.77448
 Alpha  occ. eigenvalues --   -0.69139  -0.51692  -0.43155  -0.42873  -0.36641
 Alpha  occ. eigenvalues --   -0.23025
 Alpha virt. eigenvalues --   -0.05218  -0.04081   0.00119   0.04628   0.04715
 Alpha virt. eigenvalues --    0.05853   0.06311   0.06346   0.06709   0.07938
 Alpha virt. eigenvalues --    0.08128   0.08491   0.08721   0.10616   0.11000
 Alpha virt. eigenvalues --    0.11941   0.13156   0.14950   0.15371   0.15842
 Alpha virt. eigenvalues --    0.16706   0.19104   0.19741   0.20306   0.20694
 Alpha virt. eigenvalues --    0.20791   0.22380   0.22876   0.23452   0.25279
 Alpha virt. eigenvalues --    0.25363   0.25871   0.29002   0.30128   0.30668
 Alpha virt. eigenvalues --    0.33130   0.35322   0.37917   0.39243   0.39282
 Alpha virt. eigenvalues --    0.39608   0.40043   0.41089   0.41136   0.43915
 Alpha virt. eigenvalues --    0.44742   0.45467   0.46192   0.46401   0.47047
 Alpha virt. eigenvalues --    0.47458   0.48347   0.48914   0.50213   0.51478
 Alpha virt. eigenvalues --    0.52880   0.53753   0.54047   0.54831   0.56724
 Alpha virt. eigenvalues --    0.58121   0.58327   0.61220   0.61707   0.62602
 Alpha virt. eigenvalues --    0.65709   0.66142   0.70181   0.71231   0.71308
 Alpha virt. eigenvalues --    0.76032   0.78201   0.80378   0.84013   0.84264
 Alpha virt. eigenvalues --    0.85730   0.91268   0.94675   1.03375   1.06841
 Alpha virt. eigenvalues --    1.10860   1.16225   1.16565   1.16583   1.17005
 Alpha virt. eigenvalues --    1.21069   1.21134   1.21712   1.23752   1.28377
 Alpha virt. eigenvalues --    1.32644   1.32725   1.33106   1.34301   1.34968
 Alpha virt. eigenvalues --    1.35796   1.36176   1.37508   1.38711   1.41150
 Alpha virt. eigenvalues --    1.42000   1.43298   1.47587   1.48967   1.50248
 Alpha virt. eigenvalues --    1.52441   1.54591   1.57201   1.62215   1.67837
 Alpha virt. eigenvalues --    1.77024   1.89839   1.90496   1.92195   2.13080
 Alpha virt. eigenvalues --    2.25410   2.33759   2.40810   2.59031   2.65596
 Alpha virt. eigenvalues --    2.72472   2.79955   2.86019   3.01842   3.18963
 Alpha virt. eigenvalues --    3.20576   3.81112   4.08121  11.66164
          Condensed to atoms (all electrons):
               1          2          3
     1  Si  14.056313   0.007511   0.057501
     2  Si   0.007511  38.721228 -25.265064
     3  Si   0.057501 -25.265064  39.622562
 Mulliken charges:
               1
     1  Si  -0.121325
     2  Si   0.536325
     3  Si  -0.414999
 Sum of Mulliken charges =  -0.00000
 Mulliken charges with hydrogens summed into heavy atoms:
               1
     1  Si  -0.121325
     2  Si   0.536325
     3  Si  -0.414999
 Electronic spatial extent (au):  <R**2>=            486.3185
 Charge=             -0.0000 electrons
 Dipole moment (field-independent basis, Debye):
    X=             -0.2039    Y=              0.5621    Z=             -0.0000  Tot=              0.5979
 Quadrupole moment (field-independent basis, Debye-Ang):
   XX=            -41.0819   YY=            -37.5515   ZZ=            -35.3441
   XY=             -3.3228   XZ=             -0.0000   YZ=             -0.0000
 Traceless Quadrupole moment (field-independent basis, Debye-Ang):
   XX=             -3.0894   YY=              0.4410   ZZ=              2.6484
   XY=             -3.3228   XZ=             -0.0000   YZ=             -0.0000
 Octapole moment (field-independent basis, Debye-Ang**2):
  XXX=            -23.5447  YYY=             16.0962  ZZZ=             -0.0000  XYY=             13.6946
  XXY=              9.6601  XXZ=             -0.0000  XZZ=              0.0083  YZZ=              0.0864
  YYZ=              0.0000  XYZ=             -0.0000
 Hexadecapole moment (field-independent basis, Debye-Ang**3):
 XXXX=           -255.9755 YYYY=           -566.6118 ZZZZ=            -55.4851 XXXY=            121.8345
 XXXZ=             -0.0000 YYYX=             56.9451 YYYZ=              0.0000 ZZZX=             -0.0000
 ZZZY=              0.0000 XXYY=           -121.7426 XXZZ=            -45.2182 YYZZ=            -93.7162
 XXYZ=              0.0000 YYXZ=             -0.0000 ZZXY=             30.3101
 N-N= 1.704386713108D+02 E-N=-2.403564999691D+03  KE= 8.728026899229D+02
 Symmetry A'   KE= 7.955695314446D+02
 Symmetry A"   KE= 7.723315847827D+01
 1\1\GINC-MSI\SP\RwB97XD\Aug-CC-pVTZ\Si3\MARK\18-May-2024\0\\# wb97xd/a
 ug-cc-pvtz\\Title3\\0,1\Si,0,-3.49,4.59,3.97\Si,0,-5.83,2.62,2.84\Si,0
 ,-5.99,3.03,2.\\Version=ES64L-G16RevA.03\State=1-A'\HF=-865.6410568\RM
 SD=2.291e-09\Dipole=-0.1692016,-0.1348775,-0.0923087\Quadrupole=1.7960
 743,-0.665425,-1.1306493,-0.5465442,0.4778956,2.7807527\PG=CS [SG(Si3)
 ]\\@


 COLLEGE PROFESSOR: SOMEONE WHO TALKS IN OTHER PEOPLE'S SLEEP.
 Job cpu time:       0 days  0 hours  2 minutes 31.1 seconds.
 Elapsed time:       0 days  0 hours  2 minutes 32.4 seconds.
 File lengths (MBytes):  RWF=     16 Int=      0 D2E=      0 Chk=      2 Scr=      1
 Normal termination of Gaussian 16 at Sat May 18 08:31:11 2024.
