 Entering Gaussian System, Link 0=g16
 Input=inputFiles/Test1.com
 Output=inputFiles/Test1.log
 Initial command:
 /home/mark/gaussian/g16/l1.exe "/home/mark/gaussian/scratch/Gau-1648.inp" -scrdir="/home/mark/gaussian/scratch/"
 Entering Link 1 = /home/mark/gaussian/g16/l1.exe PID=      1650.
  
 Copyright (c) 1988,1990,1992,1993,1995,1998,2003,2009,2016,
            Gaussian, Inc.  All Rights Reserved.
  
 This is part of the Gaussian(R) 16 program.  It is based on
 the Gaussian(R) 09 system (copyright 2009, Gaussian, Inc.),
 the Gaussian(R) 03 system (copyright 2003, Gaussian, Inc.),
 the Gaussian(R) 98 system (copyright 1998, Gaussian, Inc.),
 the Gaussian(R) 94 system (copyright 1995, Gaussian, Inc.),
 the Gaussian 92(TM) system (copyright 1992, Gaussian, Inc.),
 the Gaussian 90(TM) system (copyright 1990, Gaussian, Inc.),
 the Gaussian 88(TM) system (copyright 1988, Gaussian, Inc.),
 the Gaussian 86(TM) system (copyright 1986, Carnegie Mellon
 University), and the Gaussian 82(TM) system (copyright 1983,
 Carnegie Mellon University). Gaussian is a federally registered
 trademark of Gaussian, Inc.
  
 This software contains proprietary and confidential information,
 including trade secrets, belonging to Gaussian, Inc.
  
 This software is provided under written license and may be
 used, copied, transmitted, or stored only in accord with that
 written license.
  
 The following legend is applicable only to US Government
 contracts under FAR:
  
                    RESTRICTED RIGHTS LEGEND
  
 Use, reproduction and disclosure by the US Government is
 subject to restrictions as set forth in subparagraphs (a)
 and (c) of the Commercial Computer Software - Restricted
 Rights clause in FAR 52.227-19.
  
 Gaussian, Inc.
 340 Quinnipiac St., Bldg. 40, Wallingford CT 06492
  
  
 ---------------------------------------------------------------
 Warning -- This program may not be used in any manner that
 competes with the business of Gaussian, Inc. or will provide
 assistance to any competitor of Gaussian, Inc.  The licensee
 of this program is prohibited from giving any competitor of
 Gaussian, Inc. access to this program.  By using this program,
 the user acknowledges that Gaussian, Inc. is engaged in the
 business of creating and licensing software in the field of
 computational chemistry and represents and warrants to the
 licensee that it is not a competitor of Gaussian, Inc. and that
 it will not use this program in any manner prohibited above.
 ---------------------------------------------------------------
  

 Cite this work as:
 Gaussian 16, Revision A.03,
 M. J. Frisch, G. W. Trucks, H. B. Schlegel, G. E. Scuseria, 
 M. A. Robb, J. R. Cheeseman, G. Scalmani, V. Barone, 
 G. A. Petersson, H. Nakatsuji, X. Li, M. Caricato, A. V. Marenich, 
 J. Bloino, B. G. Janesko, R. Gomperts, B. Mennucci, H. P. Hratchian, 
 J. V. Ortiz, A. F. Izmaylov, J. L. Sonnenberg, D. Williams-Young, 
 F. Ding, F. Lipparini, F. Egidi, J. Goings, B. Peng, A. Petrone, 
 T. Henderson, D. Ranasinghe, V. G. Zakrzewski, J. Gao, N. Rega, 
 G. Zheng, W. Liang, M. Hada, M. Ehara, K. Toyota, R. Fukuda, 
 J. Hasegawa, M. Ishida, T. Nakajima, Y. Honda, O. Kitao, H. Nakai, 
 T. Vreven, K. Throssell, J. A. Montgomery, Jr., J. E. Peralta, 
 F. Ogliaro, M. J. Bearpark, J. J. Heyd, E. N. Brothers, K. N. Kudin, 
 V. N. Staroverov, T. A. Keith, R. Kobayashi, J. Normand, 
 K. Raghavachari, A. P. Rendell, J. C. Burant, S. S. Iyengar, 
 J. Tomasi, M. Cossi, J. M. Millam, M. Klene, C. Adamo, R. Cammi, 
 J. W. Ochterski, R. L. Martin, K. Morokuma, O. Farkas, 
 J. B. Foresman, and D. J. Fox, Gaussian, Inc., Wallingford CT, 2016.
 
 ******************************************
 Gaussian 16:  ES64L-G16RevA.03 25-Dec-2016
                18-May-2024 
 ******************************************
 %NProcShared=1
 Will use up to    1 processors via shared memory.
 %chk=inputFiles/test1.chk
 --------------------
 # wb97xd/aug-cc-pvtz
 --------------------
 1/38=1,172=1/1;
 2/12=2,17=6,18=5,40=1/2;
 3/5=16,6=1,7=10,11=2,25=1,30=1,74=-58/1,2,3;
 4//1;
 5/5=2,38=5/2;
 6/7=2,8=2,9=2,10=2,28=1/1;
 99/5=1,9=1/99;
 ------
 Title1
 ------
 Symbolic Z-matrix:
 Charge =  0 Multiplicity = 1
 Si                   -4.49      5.9       5.1 
 Si                   -7.5       3.37      3.66 
 Si                   -7.7       3.89      2.57 
 
                          Input orientation:                          
 ---------------------------------------------------------------------
 Center     Atomic      Atomic             Coordinates (Angstroms)
 Number     Number       Type             X           Y           Z
 ---------------------------------------------------------------------
      1         14           0       -4.490000    5.900000    5.100000
      2         14           0       -7.500000    3.370000    3.660000
      3         14           0       -7.700000    3.890000    2.570000
 ---------------------------------------------------------------------
                    Distance matrix (angstroms):
                    1          2          3
     1  Si   0.000000
     2  Si   4.187434   0.000000
     3  Si   4.554679   1.224132   0.000000
 Stoichiometry    Si3
 Framework group  CS[SG(Si3)]
 Deg. of freedom     3
 Full point group                 CS      NOp   2
 Largest Abelian subgroup         CS      NOp   2
 Largest concise Abelian subgroup C1      NOp   1
                         Standard orientation:                         
 ---------------------------------------------------------------------
 Center     Atomic      Atomic             Coordinates (Angstroms)
 Number     Number       Type             X           Y           Z
 ---------------------------------------------------------------------
      1         14           0        1.214359   -2.620197   -0.000000
      2         14           0       -0.000000    1.387288    0.000000
      3         14           0       -1.214359    1.232910    0.000000
 ---------------------------------------------------------------------
 Rotational constants (GHZ):          26.6958615           1.4356286           1.3623644
 Standard basis: Aug-CC-pVTZ (5D, 7F)
 There are   120 symmetry adapted cartesian basis functions of A'  symmetry.
 There are    57 symmetry adapted cartesian basis functions of A"  symmetry.
 There are    99 symmetry adapted basis functions of A'  symmetry.
 There are    51 symmetry adapted basis functions of A"  symmetry.
   150 basis functions,   345 primitive gaussians,   177 cartesian basis functions
    21 alpha electrons       21 beta electrons
       nuclear repulsion energy       132.2693204471 Hartrees.
 NAtoms=    3 NActive=    3 NUniq=    3 SFac= 1.00D+00 NAtFMM=   60 NAOKFM=F Big=F
 Integral buffers will be    131072 words long.
 Raffenetti 2 integral format.
 Two-electron integral symmetry is turned on.
 Nuclear repulsion after empirical dispersion term =      132.2685714829 Hartrees.
 One-electron integrals computed using PRISM.
 NBasis=   150 RedAO= T EigKep=  1.50D-05  NBF=    99    51
 NBsUse=   150 1.00D-06 EigRej= -1.00D+00 NBFU=    99    51
 ExpMin= 2.37D-02 ExpMax= 2.55D+05 ExpMxC= 2.46D+03 IAcc=3 IRadAn=         5 AccDes= 0.00D+00
 Harris functional with IExCor= 4639 and IRadAn=       5 diagonalized for initial guess.
 HarFok:  IExCor= 4639 AccDes= 0.00D+00 IRadAn=         5 IDoV= 1 UseB2=F ITyADJ=14
 ICtDFT=  3500011 ScaDFX=  1.000000  1.000000  1.000000  1.000000
 FoFCou: FMM=F IPFlag=           0 FMFlag=      100000 FMFlg1=           0
         NFxFlg=           0 DoJE=T BraDBF=F KetDBF=T FulRan=T
         wScrn=  0.000000 ICntrl=       500 IOpCl=  0 I1Cent=   200000004 NGrid=           0
         NMat0=    1 NMatS0=      1 NMatT0=    0 NMatD0=    1 NMtDS0=    0 NMtDT0=    0
 Petite list used in FoFCou.
 Initial guess orbital symmetries:
       Occupied  (A') (A') (A') (A') (A') (A') (A') (A") (A') (A")
                 (A') (A') (A") (A') (A') (A') (A') (A") (A') (A')
                 (A')
       Virtual   (A") (A') (A') (A') (A') (A") (A") (A') (A') (A')
                 (A") (A') (A') (A") (A') (A") (A') (A') (A') (A")
                 (A') (A') (A') (A") (A") (A') (A') (A') (A") (A")
                 (A') (A') (A") (A') (A') (A") (A') (A') (A") (A')
                 (A') (A") (A') (A") (A") (A') (A') (A') (A") (A')
                 (A") (A') (A") (A') (A") (A') (A') (A') (A') (A")
                 (A') (A') (A") (A") (A') (A') (A") (A') (A") (A')
                 (A') (A') (A") (A") (A') (A') (A') (A") (A') (A")
                 (A') (A') (A") (A') (A') (A") (A') (A") (A") (A')
                 (A') (A') (A") (A') (A") (A') (A') (A") (A") (A')
                 (A') (A') (A") (A") (A') (A') (A') (A") (A") (A')
                 (A') (A') (A") (A') (A') (A") (A') (A") (A') (A')
                 (A") (A') (A') (A") (A') (A') (A') (A') (A')
 The electronic state of the initial guess is 1-A'.
 Requested convergence on RMS density matrix=1.00D-08 within 128 cycles.
 Requested convergence on MAX density matrix=1.00D-06.
 Requested convergence on             energy=1.00D-06.
 No special actions if energy rises.
 EnCoef did    28 forward-backward iterations
 Rare condition: small coef for last iteration:  0.000D+00
 Rare condition: small coef for last iteration:  0.000D+00
 Rare condition: small coef for last iteration:  0.000D+00
 Rare condition: small coef for last iteration:  0.000D+00
 Restarting incremental Fock formation.
 Rare condition: small coef for last iteration:  0.000D+00
 Rare condition: small coef for last iteration:  0.000D+00
 Rare condition: small coef for last iteration:  0.000D+00
 Rare condition: small coef for last iteration:  0.000D+00
 Rare condition: small coef for last iteration:  0.000D+00
 Rare condition: small coef for last iteration:  0.000D+00
 Rare condition: small coef for last iteration:  0.000D+00
 Rare condition: small coef for last iteration:  0.000D+00
 Rare condition: small coef for last iteration:  0.000D+00
 Rare condition: small coef for last iteration:  0.000D+00
 Rare condition: small coef for last iteration:  0.000D+00
 Rare condition: small coef for last iteration:  0.000D+00
 Rare condition: small coef for last iteration:  0.000D+00
 Rare condition: small coef for last iteration:  0.000D+00
 Restarting incremental Fock formation.
 Rare condition: small coef for last iteration:  0.000D+00
 Rare condition: small coef for last iteration:  0.000D+00
 Rare condition: small coef for last iteration:  0.000D+00
 Rare condition: small coef for last iteration:  0.000D+00
 Rare condition: small coef for last iteration:  0.000D+00
 Rare condition: small coef for last iteration:  0.000D+00
 Rare condition: small coef for last iteration:  0.000D+00
 Rare condition: small coef for last iteration:  0.000D+00
 Rare condition: small coef for last iteration:  0.000D+00
 Rare condition: small coef for last iteration:  0.000D+00
 Rare condition: small coef for last iteration:  0.000D+00
 Restarting incremental Fock formation.
 Rare condition: small coef for last iteration:  0.000D+00
 Rare condition: small coef for last iteration:  0.000D+00
 Rare condition: small coef for last iteration:  0.000D+00
 Rare condition: small coef for last iteration:  0.000D+00
 Rare condition: small coef for last iteration:  0.000D+00
 Rare condition: small coef for last iteration:  0.000D+00
 Rare condition: small coef for last iteration:  0.000D+00
 Rare condition: small coef for last iteration:  0.000D+00
 Rare condition: small coef for last iteration:  0.000D+00
 Restarting incremental Fock formation.
 Rare condition: small coef for last iteration:  0.000D+00
 Rare condition: small coef for last iteration:  0.000D+00
 Rare condition: small coef for last iteration:  0.000D+00
 Restarting incremental Fock formation.
 SCF Done:  E(RwB97XD) =  -867.253829568     A.U. after  109 cycles
            NFock=109  Conv=0.68D-08     -V/T= 1.9978

 **********************************************************************

            Population analysis using the SCF density.

 **********************************************************************

 Orbital symmetries:
       Occupied  (A') (A') (A') (A') (A') (A') (A') (A") (A') (A")
                 (A') (A") (A') (A') (A') (A') (A') (A") (A') (A')
                 (A')
       Virtual   (A') (A") (A') (A') (A') (A") (A') (A') (A") (A')
                 (A") (A') (A') (A") (A') (A') (A") (A') (A") (A')
                 (A') (A') (A') (A") (A") (A') (A') (A') (A") (A")
                 (A') (A') (A") (A') (A') (A') (A") (A') (A") (A')
                 (A") (A') (A') (A") (A') (A') (A") (A') (A") (A')
                 (A") (A') (A") (A') (A') (A") (A') (A') (A') (A")
                 (A') (A') (A") (A") (A') (A') (A") (A') (A") (A')
                 (A') (A') (A") (A') (A") (A') (A') (A") (A') (A")
                 (A') (A') (A") (A') (A") (A') (A") (A') (A') (A")
                 (A') (A") (A') (A') (A") (A') (A") (A') (A") (A')
                 (A') (A") (A') (A') (A') (A") (A') (A") (A") (A')
                 (A') (A') (A") (A') (A') (A") (A') (A") (A') (A')
                 (A') (A") (A') (A") (A') (A') (A') (A') (A')
 The electronic state is 1-A'.
 Alpha  occ. eigenvalues --  -66.34704 -66.32922 -66.32863  -5.54344  -5.46054
 Alpha  occ. eigenvalues --   -5.44700  -3.95033  -3.82963  -3.82953  -3.80064
 Alpha  occ. eigenvalues --   -3.80054  -3.79607  -3.79607  -3.78480  -3.77949
 Alpha  occ. eigenvalues --   -0.65544  -0.51549  -0.36583  -0.36551  -0.35548
 Alpha  occ. eigenvalues --   -0.23329
 Alpha virt. eigenvalues --   -0.05712  -0.05555  -0.02649   0.04577   0.05140
 Alpha virt. eigenvalues --    0.05731   0.05885   0.06448   0.06455   0.07620
 Alpha virt. eigenvalues --    0.08146   0.08441   0.08985   0.10265   0.10738
 Alpha virt. eigenvalues --    0.12469   0.12694   0.14476   0.14575   0.14870
 Alpha virt. eigenvalues --    0.16520   0.17651   0.18746   0.19255   0.20367
 Alpha virt. eigenvalues --    0.20552   0.21148   0.22175   0.22616   0.24996
 Alpha virt. eigenvalues --    0.25152   0.26287   0.29690   0.31941   0.34365
 Alpha virt. eigenvalues --    0.34646   0.35243   0.38020   0.38855   0.39038
 Alpha virt. eigenvalues --    0.39355   0.39513   0.40562   0.40644   0.40982
 Alpha virt. eigenvalues --    0.42764   0.43446   0.44684   0.44851   0.45154
 Alpha virt. eigenvalues --    0.45236   0.46486   0.46492   0.46694   0.47766
 Alpha virt. eigenvalues --    0.47990   0.48202   0.48996   0.52813   0.53524
 Alpha virt. eigenvalues --    0.56284   0.56409   0.56749   0.57602   0.57615
 Alpha virt. eigenvalues --    0.58831   0.61081   0.64510   0.65922   0.68021
 Alpha virt. eigenvalues --    0.69829   0.73679   0.77988   0.80850   0.81241
 Alpha virt. eigenvalues --    0.82378   0.87718   1.01499   1.03384   1.06092
 Alpha virt. eigenvalues --    1.09094   1.10491   1.12872   1.13008   1.13523
 Alpha virt. eigenvalues --    1.13811   1.16286   1.18620   1.21595   1.26693
 Alpha virt. eigenvalues --    1.27933   1.29641   1.29747   1.29830   1.31680
 Alpha virt. eigenvalues --    1.32039   1.33177   1.35017   1.35049   1.35786
 Alpha virt. eigenvalues --    1.37697   1.38177   1.38725   1.41043   1.43186
 Alpha virt. eigenvalues --    1.43863   1.46560   1.52085   1.53790   1.55480
 Alpha virt. eigenvalues --    1.57369   1.65654   1.79315   1.80476   2.20721
 Alpha virt. eigenvalues --    2.22768   2.25144   2.32563   2.33054   2.38086
 Alpha virt. eigenvalues --    2.47861   2.55058   2.63760   3.14077   3.15872
 Alpha virt. eigenvalues --    3.16666   3.79613   4.06434  10.54396
          Condensed to atoms (all electrons):
               1          2          3
     1  Si  14.040585  -0.040870  -0.024855
     2  Si  -0.040870  16.361839  -2.266722
     3  Si  -0.024855  -2.266722  16.262468
 Mulliken charges:
               1
     1  Si   0.025139
     2  Si  -0.054247
     3  Si   0.029108
 Sum of Mulliken charges =  -0.00000
 Mulliken charges with hydrogens summed into heavy atoms:
               1
     1  Si   0.025139
     2  Si  -0.054247
     3  Si   0.029108
 Electronic spatial extent (au):  <R**2>=            750.1436
 Charge=             -0.0000 electrons
 Dipole moment (field-independent basis, Debye):
    X=             -0.1324    Y=             -0.1731    Z=              0.0000  Tot=              0.2180
 Quadrupole moment (field-independent basis, Debye-Ang):
   XX=            -37.3266   YY=            -43.2167   ZZ=            -36.7989
   XY=              5.8219   XZ=              0.0000   YZ=             -0.0000
 Traceless Quadrupole moment (field-independent basis, Debye-Ang):
   XX=              1.7874   YY=             -4.1026   ZZ=              2.3152
   XY=              5.8219   XZ=              0.0000   YZ=             -0.0000
 Octapole moment (field-independent basis, Debye-Ang**2):
  XXX=            -20.3226  YYY=             36.9466  ZZZ=             -0.0000  XYY=            -30.2614
  XXY=             25.4009  XXZ=              0.0000  XZZ=              0.9411  YZZ=             -2.4216
  YYZ=              0.0000  XYZ=             -0.0000
 Hexadecapole moment (field-independent basis, Debye-Ang**3):
 XXXX=           -319.0861 YYYY=          -1066.1570 ZZZZ=            -62.0052 XXXY=            235.0460
 XXXZ=              0.0000 YYYX=            339.0566 YYYZ=             -0.0000 ZZZX=              0.0000
 ZZZY=             -0.0000 XXYY=           -282.3632 XXZZ=            -58.4502 YYZZ=           -149.3149
 XXYZ=             -0.0000 YYXZ=              0.0000 ZZXY=             60.4999
 N-N= 1.322685714829D+02 E-N=-2.332065050026D+03  KE= 8.691327176703D+02
 Symmetry A'   KE= 7.930058293159D+02
 Symmetry A"   KE= 7.612688835440D+01
 1\1\GINC-MSI\SP\RwB97XD\Aug-CC-pVTZ\Si3\MARK\18-May-2024\0\\# wb97xd/a
 ug-cc-pvtz\\Title1\\0,1\Si,0,-4.49,5.9,5.1\Si,0,-7.5,3.37,3.66\Si,0,-7
 .7,3.89,2.57\\Version=ES64L-G16RevA.03\State=1-A'\HF=-867.2538296\RMSD
 =6.798e-09\Dipole=0.0329371,0.067375,-0.0415955\Quadrupole=-1.9428278,
 1.2402251,0.7026026,-2.1435413,-3.1058281,-2.9338436\PG=CS [SG(Si3)]\\
 @


 STEINBACH'S GUIDELINES FOR SYSTEMS PROGRAMMING:
 NEVER TEST FOR AN ERROR CONDITION YOU DON'T KNOW HOW
 TO HANDLE.
 Job cpu time:       0 days  0 hours 12 minutes 36.2 seconds.
 Elapsed time:       0 days  0 hours 12 minutes 37.7 seconds.
 File lengths (MBytes):  RWF=     16 Int=      0 D2E=      0 Chk=      2 Scr=      1
 Normal termination of Gaussian 16 at Sat May 18 08:25:07 2024.
