 Entering Gaussian System, Link 0=g16
 Input=inputFiles/Test0.com
 Output=inputFiles/Test0.log
 Initial command:
 /home/mark/gaussian/g16/l1.exe "/home/mark/gaussian/scratch/Gau-1644.inp" -scrdir="/home/mark/gaussian/scratch/"
 Entering Link 1 = /home/mark/gaussian/g16/l1.exe PID=      1646.
  
 Copyright (c) 1988,1990,1992,1993,1995,1998,2003,2009,2016,
            Gaussian, Inc.  All Rights Reserved.
  
 This is part of the Gaussian(R) 16 program.  It is based on
 the Gaussian(R) 09 system (copyright 2009, Gaussian, Inc.),
 the Gaussian(R) 03 system (copyright 2003, Gaussian, Inc.),
 the Gaussian(R) 98 system (copyright 1998, Gaussian, Inc.),
 the Gaussian(R) 94 system (copyright 1995, Gaussian, Inc.),
 the Gaussian 92(TM) system (copyright 1992, Gaussian, Inc.),
 the Gaussian 90(TM) system (copyright 1990, Gaussian, Inc.),
 the Gaussian 88(TM) system (copyright 1988, Gaussian, Inc.),
 the Gaussian 86(TM) system (copyright 1986, Carnegie Mellon
 University), and the Gaussian 82(TM) system (copyright 1983,
 Carnegie Mellon University). Gaussian is a federally registered
 trademark of Gaussian, Inc.
  
 This software contains proprietary and confidential information,
 including trade secrets, belonging to Gaussian, Inc.
  
 This software is provided under written license and may be
 used, copied, transmitted, or stored only in accord with that
 written license.
  
 The following legend is applicable only to US Government
 contracts under FAR:
  
                    RESTRICTED RIGHTS LEGEND
  
 Use, reproduction and disclosure by the US Government is
 subject to restrictions as set forth in subparagraphs (a)
 and (c) of the Commercial Computer Software - Restricted
 Rights clause in FAR 52.227-19.
  
 Gaussian, Inc.
 340 Quinnipiac St., Bldg. 40, Wallingford CT 06492
  
  
 ---------------------------------------------------------------
 Warning -- This program may not be used in any manner that
 competes with the business of Gaussian, Inc. or will provide
 assistance to any competitor of Gaussian, Inc.  The licensee
 of this program is prohibited from giving any competitor of
 Gaussian, Inc. access to this program.  By using this program,
 the user acknowledges that Gaussian, Inc. is engaged in the
 business of creating and licensing software in the field of
 computational chemistry and represents and warrants to the
 licensee that it is not a competitor of Gaussian, Inc. and that
 it will not use this program in any manner prohibited above.
 ---------------------------------------------------------------
  

 Cite this work as:
 Gaussian 16, Revision A.03,
 M. J. Frisch, G. W. Trucks, H. B. Schlegel, G. E. Scuseria, 
 M. A. Robb, J. R. Cheeseman, G. Scalmani, V. Barone, 
 G. A. Petersson, H. Nakatsuji, X. Li, M. Caricato, A. V. Marenich, 
 J. Bloino, B. G. Janesko, R. Gomperts, B. Mennucci, H. P. Hratchian, 
 J. V. Ortiz, A. F. Izmaylov, J. L. Sonnenberg, D. Williams-Young, 
 F. Ding, F. Lipparini, F. Egidi, J. Goings, B. Peng, A. Petrone, 
 T. Henderson, D. Ranasinghe, V. G. Zakrzewski, J. Gao, N. Rega, 
 G. Zheng, W. Liang, M. Hada, M. Ehara, K. Toyota, R. Fukuda, 
 J. Hasegawa, M. Ishida, T. Nakajima, Y. Honda, O. Kitao, H. Nakai, 
 T. Vreven, K. Throssell, J. A. Montgomery, Jr., J. E. Peralta, 
 F. Ogliaro, M. J. Bearpark, J. J. Heyd, E. N. Brothers, K. N. Kudin, 
 V. N. Staroverov, T. A. Keith, R. Kobayashi, J. Normand, 
 K. Raghavachari, A. P. Rendell, J. C. Burant, S. S. Iyengar, 
 J. Tomasi, M. Cossi, J. M. Millam, M. Klene, C. Adamo, R. Cammi, 
 J. W. Ochterski, R. L. Martin, K. Morokuma, O. Farkas, 
 J. B. Foresman, and D. J. Fox, Gaussian, Inc., Wallingford CT, 2016.
 
 ******************************************
 Gaussian 16:  ES64L-G16RevA.03 25-Dec-2016
                18-May-2024 
 ******************************************
 %NProcShared=1
 Will use up to    1 processors via shared memory.
 %chk=inputFiles/test0.chk
 --------------------
 # wb97xd/aug-cc-pvtz
 --------------------
 1/38=1,172=1/1;
 2/12=2,17=6,18=5,40=1/2;
 3/5=16,6=1,7=10,11=2,25=1,30=1,74=-58/1,2,3;
 4//1;
 5/5=2,38=5/2;
 6/7=2,8=2,9=2,10=2,28=1/1;
 99/5=1,9=1/99;
 ------
 Title0
 ------
 Symbolic Z-matrix:
 Charge =  0 Multiplicity = 1
 Si                   -4.99      6.55      5.67 
 Si                   -8.33      3.75      4.06 
 Si                   -8.55      4.33      2.85 
 
                          Input orientation:                          
 ---------------------------------------------------------------------
 Center     Atomic      Atomic             Coordinates (Angstroms)
 Number     Number       Type             X           Y           Z
 ---------------------------------------------------------------------
      1         14           0       -4.990000    6.550000    5.670000
      2         14           0       -8.330000    3.750000    4.060000
      3         14           0       -8.550000    4.330000    2.850000
 ---------------------------------------------------------------------
                    Distance matrix (angstroms):
                    1          2          3
     1  Si   0.000000
     2  Si   4.646257   0.000000
     3  Si   5.055136   1.359743   0.000000
 Stoichiometry    Si3
 Framework group  CS[SG(Si3)]
 Deg. of freedom     3
 Full point group                 CS      NOp   2
 Largest Abelian subgroup         CS      NOp   2
 Largest concise Abelian subgroup C1      NOp   1
                         Standard orientation:                         
 ---------------------------------------------------------------------
 Center     Atomic      Atomic             Coordinates (Angstroms)
 Number     Number       Type             X           Y           Z
 ---------------------------------------------------------------------
      1         14           0        1.348935   -2.907054    0.000000
      2         14           0       -0.000000    1.539076    0.000000
      3         14           0       -1.348935    1.367978    0.000000
 ---------------------------------------------------------------------
 Rotational constants (GHZ):          21.6475940           1.1657387           1.1061706
 Standard basis: Aug-CC-pVTZ (5D, 7F)
 There are   120 symmetry adapted cartesian basis functions of A'  symmetry.
 There are    57 symmetry adapted cartesian basis functions of A"  symmetry.
 There are    99 symmetry adapted basis functions of A'  symmetry.
 There are    51 symmetry adapted basis functions of A"  symmetry.
   150 basis functions,   345 primitive gaussians,   177 cartesian basis functions
    21 alpha electrons       21 beta electrons
       nuclear repulsion energy       119.1187810832 Hartrees.
 NAtoms=    3 NActive=    3 NUniq=    3 SFac= 1.00D+00 NAtFMM=   60 NAOKFM=F Big=F
 Integral buffers will be    131072 words long.
 Raffenetti 2 integral format.
 Two-electron integral symmetry is turned on.
 Nuclear repulsion after empirical dispersion term =      119.1182788101 Hartrees.
 One-electron integrals computed using PRISM.
 NBasis=   150 RedAO= T EigKep=  2.59D-05  NBF=    99    51
 NBsUse=   150 1.00D-06 EigRej= -1.00D+00 NBFU=    99    51
 ExpMin= 2.37D-02 ExpMax= 2.55D+05 ExpMxC= 2.46D+03 IAcc=3 IRadAn=         5 AccDes= 0.00D+00
 Harris functional with IExCor= 4639 and IRadAn=       5 diagonalized for initial guess.
 HarFok:  IExCor= 4639 AccDes= 0.00D+00 IRadAn=         5 IDoV= 1 UseB2=F ITyADJ=14
 ICtDFT=  3500011 ScaDFX=  1.000000  1.000000  1.000000  1.000000
 FoFCou: FMM=F IPFlag=           0 FMFlag=      100000 FMFlg1=           0
         NFxFlg=           0 DoJE=T BraDBF=F KetDBF=T FulRan=T
         wScrn=  0.000000 ICntrl=       500 IOpCl=  0 I1Cent=   200000004 NGrid=           0
         NMat0=    1 NMatS0=      1 NMatT0=    0 NMatD0=    1 NMtDS0=    0 NMtDT0=    0
 Petite list used in FoFCou.
 Initial guess orbital symmetries:
       Occupied  (A') (A') (A') (A') (A') (A') (A') (A') (A") (A")
                 (A') (A') (A") (A') (A') (A') (A') (A") (A') (A')
                 (A')
       Virtual   (A") (A') (A') (A') (A') (A") (A') (A") (A') (A')
                 (A") (A') (A') (A") (A') (A") (A') (A') (A') (A")
                 (A') (A') (A") (A') (A') (A") (A') (A') (A") (A')
                 (A") (A') (A") (A') (A') (A") (A') (A') (A') (A")
                 (A') (A') (A") (A") (A") (A') (A') (A") (A') (A')
                 (A") (A') (A') (A") (A') (A") (A') (A') (A') (A")
                 (A') (A") (A') (A') (A") (A') (A") (A') (A") (A')
                 (A') (A') (A") (A") (A') (A') (A') (A') (A") (A")
                 (A') (A') (A") (A') (A') (A") (A') (A") (A") (A')
                 (A') (A') (A") (A') (A") (A') (A') (A") (A') (A")
                 (A') (A') (A") (A') (A") (A') (A') (A") (A') (A")
                 (A') (A') (A") (A') (A") (A') (A') (A") (A') (A')
                 (A") (A') (A') (A") (A') (A') (A') (A') (A')
 The electronic state of the initial guess is 1-A'.
 Requested convergence on RMS density matrix=1.00D-08 within 128 cycles.
 Requested convergence on MAX density matrix=1.00D-06.
 Requested convergence on             energy=1.00D-06.
 No special actions if energy rises.
 Restarting incremental Fock formation.
 Restarting incremental Fock formation.
 Restarting incremental Fock formation.
 SCF Done:  E(RwB97XD) =  -867.632816564     A.U. after   80 cycles
            NFock= 80  Conv=0.81D-08     -V/T= 1.9994

 **********************************************************************

            Population analysis using the SCF density.

 **********************************************************************

 Orbital symmetries:
       Occupied  (A') (A') (A') (A') (A') (A') (A') (A') (A") (A')
                 (A") (A') (A') (A") (A') (A') (A') (A') (A") (A')
                 (A')
       Virtual   (A') (A") (A') (A') (A") (A') (A') (A') (A") (A')
                 (A") (A') (A') (A") (A') (A') (A") (A') (A") (A')
                 (A') (A') (A") (A') (A') (A") (A') (A') (A") (A")
                 (A') (A') (A") (A') (A') (A') (A") (A') (A') (A")
                 (A') (A") (A') (A") (A') (A') (A") (A") (A') (A')
                 (A") (A') (A') (A") (A') (A') (A") (A') (A') (A")
                 (A') (A") (A') (A') (A") (A') (A") (A') (A") (A')
                 (A') (A') (A") (A') (A") (A') (A') (A') (A") (A")
                 (A') (A') (A") (A') (A') (A") (A") (A') (A') (A")
                 (A') (A") (A') (A") (A') (A') (A') (A") (A") (A')
                 (A') (A') (A") (A') (A") (A') (A') (A") (A") (A')
                 (A') (A') (A") (A') (A") (A') (A") (A') (A') (A')
                 (A') (A") (A') (A") (A') (A') (A') (A') (A')
 The electronic state is 1-A'.
 Alpha  occ. eigenvalues --  -66.34818 -66.29344 -66.29327  -5.46101  -5.44799
 Alpha  occ. eigenvalues --   -5.42636  -3.85138  -3.79706  -3.79706  -3.78051
 Alpha  occ. eigenvalues --   -3.77649  -3.77643  -3.76339  -3.76338  -3.76310
 Alpha  occ. eigenvalues --   -0.66312  -0.51559  -0.36531  -0.34618  -0.34574
 Alpha  occ. eigenvalues --   -0.23454
 Alpha virt. eigenvalues --   -0.05977  -0.05555  -0.05119   0.04486   0.05205
 Alpha virt. eigenvalues --    0.05250   0.05492   0.05991   0.06470   0.07519
 Alpha virt. eigenvalues --    0.08143   0.08382   0.08742   0.09579   0.10169
 Alpha virt. eigenvalues --    0.12062   0.12555   0.14199   0.14441   0.14660
 Alpha virt. eigenvalues --    0.15332   0.16751   0.18321   0.19138   0.19789
 Alpha virt. eigenvalues --    0.20110   0.20340   0.21657   0.22143   0.24447
 Alpha virt. eigenvalues --    0.24528   0.25570   0.30069   0.31745   0.33421
 Alpha virt. eigenvalues --    0.34808   0.35978   0.37895   0.38714   0.38875
 Alpha virt. eigenvalues --    0.39207   0.39320   0.40218   0.40798   0.41342
 Alpha virt. eigenvalues --    0.42075   0.42263   0.43444   0.43950   0.44742
 Alpha virt. eigenvalues --    0.45169   0.45565   0.45772   0.45960   0.46471
 Alpha virt. eigenvalues --    0.46681   0.47361   0.47462   0.49830   0.52315
 Alpha virt. eigenvalues --    0.52837   0.54674   0.54852   0.55388   0.55567
 Alpha virt. eigenvalues --    0.56997   0.58164   0.60776   0.62590   0.65378
 Alpha virt. eigenvalues --    0.66694   0.70279   0.76154   0.77873   0.78559
 Alpha virt. eigenvalues --    0.79460   0.84763   1.03566   1.04566   1.05976
 Alpha virt. eigenvalues --    1.06371   1.08368   1.08578   1.09065   1.13357
 Alpha virt. eigenvalues --    1.13380   1.15792   1.17053   1.18778   1.25351
 Alpha virt. eigenvalues --    1.26511   1.27839   1.29115   1.29773   1.29844
 Alpha virt. eigenvalues --    1.30573   1.31972   1.32161   1.32273   1.32622
 Alpha virt. eigenvalues --    1.34360   1.35365   1.36918   1.38001   1.39697
 Alpha virt. eigenvalues --    1.39795   1.43310   1.50547   1.51906   1.52364
 Alpha virt. eigenvalues --    1.54785   1.59950   1.74568   1.75279   2.14092
 Alpha virt. eigenvalues --    2.15414   2.22143   2.23820   2.24207   2.33067
 Alpha virt. eigenvalues --    2.44445   2.51046   2.56284   3.11696   3.13238
 Alpha virt. eigenvalues --    3.22256   3.37336   4.18597   9.10445
          Condensed to atoms (all electrons):
               1          2          3
     1  Si  14.005745  -0.015090  -0.012028
     2  Si  -0.015090  14.539125  -0.477800
     3  Si  -0.012028  -0.477800  14.464967
 Mulliken charges:
               1
     1  Si   0.021373
     2  Si  -0.046234
     3  Si   0.024861
 Sum of Mulliken charges =  -0.00000
 Mulliken charges with hydrogens summed into heavy atoms:
               1
     1  Si   0.021373
     2  Si  -0.046234
     3  Si   0.024861
 Electronic spatial extent (au):  <R**2>=            903.7446
 Charge=             -0.0000 electrons
 Dipole moment (field-independent basis, Debye):
    X=             -0.1262    Y=             -0.2098    Z=              0.0000  Tot=              0.2448
 Quadrupole moment (field-independent basis, Debye-Ang):
   XX=            -37.7423   YY=            -42.1570   ZZ=            -37.5371
   XY=              5.7370   XZ=              0.0000   YZ=             -0.0000
 Traceless Quadrupole moment (field-independent basis, Debye-Ang):
   XX=              1.4032   YY=             -3.0115   ZZ=              1.6084
   XY=              5.7370   XZ=              0.0000   YZ=             -0.0000
 Octapole moment (field-independent basis, Debye-Ang**2):
  XXX=            -29.2947  YYY=             25.0715  ZZZ=              0.0000  XYY=            -30.2783
  XXY=             32.6284  XXZ=              0.0000  XZZ=              1.5597  YZZ=             -3.7891
  YYZ=             -0.0000  XYZ=             -0.0000
 Hexadecapole moment (field-independent basis, Debye-Ang**3):
 XXXX=           -389.0955 YYYY=          -1222.1651 ZZZZ=            -65.5784 XXXY=            299.3390
 XXXZ=              0.0000 YYYX=            399.0914 YYYZ=             -0.0000 ZZZX=              0.0000
 ZZZY=             -0.0000 XXYY=           -347.7907 XXZZ=            -68.2781 YYZZ=           -179.0481
 XXYZ=             -0.0000 YYXZ=              0.0000 ZZXY=             74.0902
 N-N= 1.191182788101D+02 E-N=-2.306649122407D+03  KE= 8.681909764197D+02
 Symmetry A'   KE= 7.924846322629D+02
 Symmetry A"   KE= 7.570634415682D+01
 1\1\GINC-MSI\SP\RwB97XD\Aug-CC-pVTZ\Si3\MARK\18-May-2024\0\\# wb97xd/a
 ug-cc-pvtz\\Title0\\0,1\Si,0,-4.99,6.55,5.67\Si,0,-8.33,3.75,4.06\Si,0
 ,-8.55,4.33,2.85\\Version=ES64L-G16RevA.03\State=1-A'\HF=-867.6328166\
 RMSD=8.087e-09\Dipole=0.0434243,0.0771615,-0.0379283\Quadrupole=-1.816
 2119,1.4430173,0.3731946,-1.4914659,-2.9444841,-2.8816631\PG=CS [SG(Si
 3)]\\@


     ON THE SURVIVAL OF THE FITTEST -
 "STRONG REPRESENTATIVES FROM EACH PAST ERA THRIVE TODAY,
 SUCH AS PROGRAMMING IN THE THIRTY YEAR OLD LANGUAGE KNOWN
 AS FORTRAN, AND EVEN IN THE ANCIENT SCRIPT KNOWN AS DIRECT
 MACHINE CODE. SOME PEOPLE MIGHT LOOK ON SUCH RELICS AS LIVING
 FOSSILS; OTHERS WOULD POINT OUT THAT EVEN A VERY OLD SPECIES
 MIGHT STILL BE FILLING A PARTICULAR ECOLOGICAL NICHE."
     -- ALAN KAY, SCI.AM. SEPTEMBER 1984
 Job cpu time:       0 days  0 hours  8 minutes 44.7 seconds.
 Elapsed time:       0 days  0 hours  8 minutes 44.1 seconds.
 File lengths (MBytes):  RWF=     16 Int=      0 D2E=      0 Chk=      2 Scr=      1
 Normal termination of Gaussian 16 at Sat May 18 08:12:30 2024.
