 Entering Gaussian System, Link 0=g16
 Input=inputFiles/Test4.com
 Output=inputFiles/Test4.log
 Initial command:
 /home/mark/gaussian/g16/l1.exe "/home/mark/gaussian/scratch/Gau-2434.inp" -scrdir="/home/mark/gaussian/scratch/"
 Entering Link 1 = /home/mark/gaussian/g16/l1.exe PID=      2436.
  
 Copyright (c) 1988,1990,1992,1993,1995,1998,2003,2009,2016,
            Gaussian, Inc.  All Rights Reserved.
  
 This is part of the Gaussian(R) 16 program.  It is based on
 the Gaussian(R) 09 system (copyright 2009, Gaussian, Inc.),
 the Gaussian(R) 03 system (copyright 2003, Gaussian, Inc.),
 the Gaussian(R) 98 system (copyright 1998, Gaussian, Inc.),
 the Gaussian(R) 94 system (copyright 1995, Gaussian, Inc.),
 the Gaussian 92(TM) system (copyright 1992, Gaussian, Inc.),
 the Gaussian 90(TM) system (copyright 1990, Gaussian, Inc.),
 the Gaussian 88(TM) system (copyright 1988, Gaussian, Inc.),
 the Gaussian 86(TM) system (copyright 1986, Carnegie Mellon
 University), and the Gaussian 82(TM) system (copyright 1983,
 Carnegie Mellon University). Gaussian is a federally registered
 trademark of Gaussian, Inc.
  
 This software contains proprietary and confidential information,
 including trade secrets, belonging to Gaussian, Inc.
  
 This software is provided under written license and may be
 used, copied, transmitted, or stored only in accord with that
 written license.
  
 The following legend is applicable only to US Government
 contracts under FAR:
  
                    RESTRICTED RIGHTS LEGEND
  
 Use, reproduction and disclosure by the US Government is
 subject to restrictions as set forth in subparagraphs (a)
 and (c) of the Commercial Computer Software - Restricted
 Rights clause in FAR 52.227-19.
  
 Gaussian, Inc.
 340 Quinnipiac St., Bldg. 40, Wallingford CT 06492
  
  
 ---------------------------------------------------------------
 Warning -- This program may not be used in any manner that
 competes with the business of Gaussian, Inc. or will provide
 assistance to any competitor of Gaussian, Inc.  The licensee
 of this program is prohibited from giving any competitor of
 Gaussian, Inc. access to this program.  By using this program,
 the user acknowledges that Gaussian, Inc. is engaged in the
 business of creating and licensing software in the field of
 computational chemistry and represents and warrants to the
 licensee that it is not a competitor of Gaussian, Inc. and that
 it will not use this program in any manner prohibited above.
 ---------------------------------------------------------------
  

 Cite this work as:
 Gaussian 16, Revision A.03,
 M. J. Frisch, G. W. Trucks, H. B. Schlegel, G. E. Scuseria, 
 M. A. Robb, J. R. Cheeseman, G. Scalmani, V. Barone, 
 G. A. Petersson, H. Nakatsuji, X. Li, M. Caricato, A. V. Marenich, 
 J. Bloino, B. G. Janesko, R. Gomperts, B. Mennucci, H. P. Hratchian, 
 J. V. Ortiz, A. F. Izmaylov, J. L. Sonnenberg, D. Williams-Young, 
 F. Ding, F. Lipparini, F. Egidi, J. Goings, B. Peng, A. Petrone, 
 T. Henderson, D. Ranasinghe, V. G. Zakrzewski, J. Gao, N. Rega, 
 G. Zheng, W. Liang, M. Hada, M. Ehara, K. Toyota, R. Fukuda, 
 J. Hasegawa, M. Ishida, T. Nakajima, Y. Honda, O. Kitao, H. Nakai, 
 T. Vreven, K. Throssell, J. A. Montgomery, Jr., J. E. Peralta, 
 F. Ogliaro, M. J. Bearpark, J. J. Heyd, E. N. Brothers, K. N. Kudin, 
 V. N. Staroverov, T. A. Keith, R. Kobayashi, J. Normand, 
 K. Raghavachari, A. P. Rendell, J. C. Burant, S. S. Iyengar, 
 J. Tomasi, M. Cossi, J. M. Millam, M. Klene, C. Adamo, R. Cammi, 
 J. W. Ochterski, R. L. Martin, K. Morokuma, O. Farkas, 
 J. B. Foresman, and D. J. Fox, Gaussian, Inc., Wallingford CT, 2016.
 
 ******************************************
 Gaussian 16:  ES64L-G16RevA.03 25-Dec-2016
                18-May-2024 
 ******************************************
 %NProcShared=1
 Will use up to    1 processors via shared memory.
 %chk=inputFiles/test4.chk
 --------------------
 # wb97xd/aug-cc-pvtz
 --------------------
 1/38=1,172=1/1;
 2/12=2,17=6,18=5,40=1/2;
 3/5=16,6=1,7=10,11=2,25=1,30=1,74=-58/1,2,3;
 4//1;
 5/5=2,38=5/2;
 6/7=2,8=2,9=2,10=2,28=1/1;
 99/5=1,9=1/99;
 ------
 Title4
 ------
 Symbolic Z-matrix:
 Charge =  0 Multiplicity = 1
 Si                    3.7      -0.97      7.03 
 Si                    2.43      6.77      3.5 
 Si                   -0.39      3.42      7.22 
 Si                    3.48      3.72      6.17 
 Si                    1.08      4.97      6.17 
 Si                   -2.2       4.33      6.36 
 
                          Input orientation:                          
 ---------------------------------------------------------------------
 Center     Atomic      Atomic             Coordinates (Angstroms)
 Number     Number       Type             X           Y           Z
 ---------------------------------------------------------------------
      1         14           0        3.700000   -0.970000    7.030000
      2         14           0        2.430000    6.770000    3.500000
      3         14           0       -0.390000    3.420000    7.220000
      4         14           0        3.480000    3.720000    6.170000
      5         14           0        1.080000    4.970000    6.170000
      6         14           0       -2.200000    4.330000    6.360000
 ---------------------------------------------------------------------
                    Distance matrix (angstroms):
                    1          2          3          4          5
     1  Si   0.000000
     2  Si   8.601244   0.000000
     3  Si   6.003024   5.745720   0.000000
     4  Si   4.773269   4.187350   4.021119   0.000000
     5  Si   6.548862   3.491619   2.380315   2.706012   0.000000
     6  Si   7.959202   5.964067   2.200863   5.715820   3.347253
                    6
     6  Si   0.000000
 Stoichiometry    Si6
 Framework group  C1[X(Si6)]
 Deg. of freedom    12
 Full point group                 C1      NOp   1
 Largest Abelian subgroup         C1      NOp   1
 Largest concise Abelian subgroup C1      NOp   1
                         Standard orientation:                         
 ---------------------------------------------------------------------
 Center     Atomic      Atomic             Coordinates (Angstroms)
 Number     Number       Type             X           Y           Z
 ---------------------------------------------------------------------
      1         14           0        5.296278    0.020812   -0.504722
      2         14           0       -2.760935    3.029085   -0.618802
      3         14           0       -0.268202   -2.050503    0.379880
      4         14           0        1.008515    1.750609    0.681445
      5         14           0       -1.167115    0.147565    0.542221
      6         14           0       -2.108541   -2.897568   -0.480022
 ---------------------------------------------------------------------
 Rotational constants (GHZ):           0.6782506           0.4073892           0.2678822
 Standard basis: Aug-CC-pVTZ (5D, 7F)
 There are   354 symmetry adapted cartesian basis functions of A   symmetry.
 There are   300 symmetry adapted basis functions of A   symmetry.
   300 basis functions,   690 primitive gaussians,   354 cartesian basis functions
    42 alpha electrons       42 beta electrons
       nuclear repulsion energy       373.8055928502 Hartrees.
 NAtoms=    6 NActive=    6 NUniq=    6 SFac= 1.00D+00 NAtFMM=   60 NAOKFM=F Big=F
 Integral buffers will be    131072 words long.
 Raffenetti 2 integral format.
 Two-electron integral symmetry is turned on.
 Nuclear repulsion after empirical dispersion term =      373.8032975269 Hartrees.
 One-electron integrals computed using PRISM.
 NBasis=   300 RedAO= T EigKep=  1.28D-04  NBF=   300
 NBsUse=   300 1.00D-06 EigRej= -1.00D+00 NBFU=   300
 ExpMin= 2.37D-02 ExpMax= 2.55D+05 ExpMxC= 2.46D+03 IAcc=3 IRadAn=         5 AccDes= 0.00D+00
 Harris functional with IExCor= 4639 and IRadAn=       5 diagonalized for initial guess.
 HarFok:  IExCor= 4639 AccDes= 0.00D+00 IRadAn=         5 IDoV= 1 UseB2=F ITyADJ=14
 ICtDFT=  3500011 ScaDFX=  1.000000  1.000000  1.000000  1.000000
 FoFCou: FMM=F IPFlag=           0 FMFlag=      100000 FMFlg1=           0
         NFxFlg=           0 DoJE=T BraDBF=F KetDBF=T FulRan=T
         wScrn=  0.000000 ICntrl=       500 IOpCl=  0 I1Cent=   200000004 NGrid=           0
         NMat0=    1 NMatS0=      1 NMatT0=    0 NMatD0=    1 NMtDS0=    0 NMtDT0=    0
 Petite list used in FoFCou.
 Requested convergence on RMS density matrix=1.00D-08 within 128 cycles.
 Requested convergence on MAX density matrix=1.00D-06.
 Requested convergence on             energy=1.00D-06.
 No special actions if energy rises.
 Rare condition: small coef for last iteration:  0.000D+00
 EnCoef did     2 forward-backward iterations
 EnCoef did     2 forward-backward iterations
 EnCoef did   100 forward-backward iterations
 Restarting incremental Fock formation.
 Restarting incremental Fock formation.
 Restarting incremental Fock formation.
 SCF Done:  E(RwB97XD) =  -1736.41659183     A.U. after   64 cycles
            NFock= 64  Conv=0.83D-08     -V/T= 2.0033

 **********************************************************************

            Population analysis using the SCF density.

 **********************************************************************

 Orbital symmetries:
       Occupied  (A) (A) (A) (A) (A) (A) (A) (A) (A) (A) (A) (A)
                 (A) (A) (A) (A) (A) (A) (A) (A) (A) (A) (A) (A)
                 (A) (A) (A) (A) (A) (A) (A) (A) (A) (A) (A) (A)
                 (A) (A) (A) (A) (A) (A)
       Virtual   (A) (A) (A) (A) (A) (A) (A) (A) (A) (A) (A) (A)
                 (A) (A) (A) (A) (A) (A) (A) (A) (A) (A) (A) (A)
                 (A) (A) (A) (A) (A) (A) (A) (A) (A) (A) (A) (A)
                 (A) (A) (A) (A) (A) (A) (A) (A) (A) (A) (A) (A)
                 (A) (A) (A) (A) (A) (A) (A) (A) (A) (A) (A) (A)
                 (A) (A) (A) (A) (A) (A) (A) (A) (A) (A) (A) (A)
                 (A) (A) (A) (A) (A) (A) (A) (A) (A) (A) (A) (A)
                 (A) (A) (A) (A) (A) (A) (A) (A) (A) (A) (A) (A)
                 (A) (A) (A) (A) (A) (A) (A) (A) (A) (A) (A) (A)
                 (A) (A) (A) (A) (A) (A) (A) (A) (A) (A) (A) (A)
                 (A) (A) (A) (A) (A) (A) (A) (A) (A) (A) (A) (A)
                 (A) (A) (A) (A) (A) (A) (A) (A) (A) (A) (A) (A)
                 (A) (A) (A) (A) (A) (A) (A) (A) (A) (A) (A) (A)
                 (A) (A) (A) (A) (A) (A) (A) (A) (A) (A) (A) (A)
                 (A) (A) (A) (A) (A) (A) (A) (A) (A) (A) (A) (A)
                 (A) (A) (A) (A) (A) (A) (A) (A) (A) (A) (A) (A)
                 (A) (A) (A) (A) (A) (A) (A) (A) (A) (A) (A) (A)
                 (A) (A) (A) (A) (A) (A) (A) (A) (A) (A) (A) (A)
                 (A) (A) (A) (A) (A) (A) (A) (A) (A) (A) (A) (A)
                 (A) (A) (A) (A) (A) (A) (A) (A) (A) (A) (A) (A)
                 (A) (A) (A) (A) (A) (A) (A) (A) (A) (A) (A) (A)
                 (A) (A) (A) (A) (A) (A)
 The electronic state is 1-A.
 Alpha  occ. eigenvalues --  -66.37222 -66.36618 -66.36248 -66.31843 -66.31065
 Alpha  occ. eigenvalues --  -66.25434  -5.46972  -5.46549  -5.46007  -5.41841
 Alpha  occ. eigenvalues --   -5.41447  -5.36303  -3.81799  -3.81506  -3.81447
 Alpha  occ. eigenvalues --   -3.81447  -3.80899  -3.80705  -3.80590  -3.79822
 Alpha  occ. eigenvalues --   -3.79613  -3.76531  -3.76185  -3.76179  -3.76026
 Alpha  occ. eigenvalues --   -3.76020  -3.75202  -3.70858  -3.70696  -3.70446
 Alpha  occ. eigenvalues --   -0.62230  -0.56535  -0.53044  -0.52196  -0.48835
 Alpha  occ. eigenvalues --   -0.41043  -0.30500  -0.29167  -0.27362  -0.25125
 Alpha  occ. eigenvalues --   -0.24023  -0.23367
 Alpha virt. eigenvalues --   -0.09132  -0.06887  -0.06784  -0.06492  -0.05845
 Alpha virt. eigenvalues --   -0.05524  -0.02608  -0.02211   0.02415   0.03531
 Alpha virt. eigenvalues --    0.04212   0.04876   0.05492   0.05712   0.06178
 Alpha virt. eigenvalues --    0.06282   0.06868   0.07400   0.07454   0.07800
 Alpha virt. eigenvalues --    0.08209   0.08549   0.08938   0.09124   0.09580
 Alpha virt. eigenvalues --    0.09664   0.10125   0.10602   0.10700   0.11527
 Alpha virt. eigenvalues --    0.12393   0.13051   0.13385   0.13700   0.13764
 Alpha virt. eigenvalues --    0.13979   0.14706   0.15187   0.15525   0.15811
 Alpha virt. eigenvalues --    0.16340   0.17185   0.17568   0.18296   0.18525
 Alpha virt. eigenvalues --    0.19110   0.19255   0.19628   0.19943   0.20460
 Alpha virt. eigenvalues --    0.21167   0.21343   0.21435   0.21702   0.22360
 Alpha virt. eigenvalues --    0.22765   0.23248   0.24055   0.24433   0.25317
 Alpha virt. eigenvalues --    0.25976   0.26203   0.27085   0.27810   0.28695
 Alpha virt. eigenvalues --    0.30934   0.34205   0.35275   0.35764   0.36242
 Alpha virt. eigenvalues --    0.37025   0.37226   0.37363   0.37994   0.38201
 Alpha virt. eigenvalues --    0.38385   0.38537   0.38760   0.39340   0.39443
 Alpha virt. eigenvalues --    0.39745   0.39819   0.40192   0.40357   0.40584
 Alpha virt. eigenvalues --    0.40983   0.41072   0.41154   0.41838   0.41871
 Alpha virt. eigenvalues --    0.42469   0.42590   0.43753   0.43766   0.44101
 Alpha virt. eigenvalues --    0.44292   0.44357   0.44491   0.44676   0.45307
 Alpha virt. eigenvalues --    0.45705   0.45836   0.46243   0.46954   0.47288
 Alpha virt. eigenvalues --    0.47402   0.48011   0.48178   0.48285   0.48612
 Alpha virt. eigenvalues --    0.48971   0.49561   0.50362   0.50845   0.51109
 Alpha virt. eigenvalues --    0.51205   0.51907   0.52472   0.53292   0.53657
 Alpha virt. eigenvalues --    0.53927   0.54647   0.55055   0.56013   0.56790
 Alpha virt. eigenvalues --    0.57739   0.58337   0.58547   0.59731   0.60118
 Alpha virt. eigenvalues --    0.61173   0.62106   0.62462   0.63019   0.63828
 Alpha virt. eigenvalues --    0.65420   0.66825   0.67681   0.67966   0.67970
 Alpha virt. eigenvalues --    0.69869   0.71016   0.71509   0.72995   0.74941
 Alpha virt. eigenvalues --    0.75610   0.76136   0.76889   0.78171   0.79676
 Alpha virt. eigenvalues --    0.80427   0.82502   0.83476   0.84669   0.86443
 Alpha virt. eigenvalues --    0.89401   0.91568   0.93828   0.97918   0.98751
 Alpha virt. eigenvalues --    1.02984   1.05174   1.12017   1.12171   1.14276
 Alpha virt. eigenvalues --    1.14533   1.15349   1.16098   1.17015   1.17224
 Alpha virt. eigenvalues --    1.18196   1.18381   1.18940   1.19397   1.21115
 Alpha virt. eigenvalues --    1.22104   1.22616   1.23432   1.25104   1.25807
 Alpha virt. eigenvalues --    1.26499   1.28034   1.28272   1.28482   1.28812
 Alpha virt. eigenvalues --    1.29015   1.30181   1.30439   1.31113   1.31591
 Alpha virt. eigenvalues --    1.32029   1.32310   1.32681   1.32776   1.33789
 Alpha virt. eigenvalues --    1.34368   1.34500   1.35097   1.35458   1.36126
 Alpha virt. eigenvalues --    1.36292   1.37553   1.37740   1.37994   1.38260
 Alpha virt. eigenvalues --    1.38887   1.39211   1.40117   1.40535   1.41001
 Alpha virt. eigenvalues --    1.41222   1.41292   1.41924   1.43472   1.44933
 Alpha virt. eigenvalues --    1.45452   1.46407   1.48336   1.49783   1.51450
 Alpha virt. eigenvalues --    1.52845   1.55365   1.55498   1.56592   1.60376
 Alpha virt. eigenvalues --    1.63547   1.64093   1.64815   1.66687   1.70133
 Alpha virt. eigenvalues --    1.71465   1.78956   1.82123   1.84628   2.20790
 Alpha virt. eigenvalues --    2.21930   2.25884   2.29364   2.32486   2.35722
 Alpha virt. eigenvalues --    2.36520   2.39569   2.41021   2.42752   2.47863
 Alpha virt. eigenvalues --    2.50457   2.55838   2.56013   2.58812   2.67817
 Alpha virt. eigenvalues --    2.84795   2.87119   3.08741   3.13666   3.28381
 Alpha virt. eigenvalues --    3.53455   3.89741   4.07543
          Condensed to atoms (all electrons):
               1          2          3          4          5          6
     1  Si  13.931937   0.000286  -0.000918   0.021301   0.001215  -0.000049
     2  Si   0.000286  13.719007  -0.002103   0.090125   0.171957  -0.007615
     3  Si  -0.000918  -0.002103  13.600892  -0.050784   0.220614   0.397101
     4  Si   0.021301   0.090125  -0.050784  13.494099   0.240091   0.007726
     5  Si   0.001215   0.171957   0.220614   0.240091  13.360934   0.122920
     6  Si  -0.000049  -0.007615   0.397101   0.007726   0.122920  13.469395
 Mulliken charges:
               1
     1  Si   0.046227
     2  Si   0.028343
     3  Si  -0.164802
     4  Si   0.197441
     5  Si  -0.117731
     6  Si   0.010522
 Sum of Mulliken charges =  -0.00000
 Mulliken charges with hydrogens summed into heavy atoms:
               1
     1  Si   0.046227
     2  Si   0.028343
     3  Si  -0.164802
     4  Si   0.197441
     5  Si  -0.117731
     6  Si   0.010522
 Electronic spatial extent (au):  <R**2>=           3639.5242
 Charge=             -0.0000 electrons
 Dipole moment (field-independent basis, Debye):
    X=              2.3083    Y=              2.6883    Z=              0.2249  Tot=              3.5505
 Quadrupole moment (field-independent basis, Debye-Ang):
   XX=            -81.8424   YY=            -82.6231   ZZ=            -77.2136
   XY=             -2.1710   XZ=              1.7443   YZ=              1.7007
 Traceless Quadrupole moment (field-independent basis, Debye-Ang):
   XX=             -1.2827   YY=             -2.0634   ZZ=              3.3461
   XY=             -2.1710   XZ=              1.7443   YZ=              1.7007
 Octapole moment (field-independent basis, Debye-Ang**2):
  XXX=              2.1344  YYY=              1.5039  ZZZ=             -1.3135  XYY=            -16.2561
  XXY=             50.7801  XXZ=             17.5675  XZZ=              6.1792  YZZ=             14.6925
  YYZ=              7.0390  XYZ=              4.3651
 Hexadecapole moment (field-independent basis, Debye-Ang**3):
 XXXX=          -4437.1126 YYYY=          -2234.7559 ZZZZ=           -285.1626 XXXY=            218.2174
 XXXZ=            148.4997 YYYX=           -130.0772 YYYZ=             17.6602 ZZZX=              5.1339
 ZZZY=              1.3741 XXYY=           -930.8726 XXZZ=           -616.3098 YYZZ=           -401.7198
 XXYZ=            -66.1337 YYXZ=            -10.6112 ZZXY=            -16.8354
 N-N= 3.738032975269D+02 E-N=-4.882214280769D+03  KE= 1.730753155426D+03
 1\1\GINC-MSI\SP\RwB97XD\Aug-CC-pVTZ\Si6\MARK\18-May-2024\0\\# wb97xd/a
 ug-cc-pvtz\\Title4\\0,1\Si,0,3.7,-0.97,7.03\Si,0,2.43,6.77,3.5\Si,0,-0
 .39,3.42,7.22\Si,0,3.48,3.72,6.17\Si,0,1.08,4.97,6.17\Si,0,-2.2,4.33,6
 .36\\Version=ES64L-G16RevA.03\State=1-A\HF=-1736.4165918\RMSD=8.333e-0
 9\Dipole=1.3362933,-0.3812001,-0.1421716\Quadrupole=-1.4303336,-0.0777
 714,1.508105,1.6593688,2.3856125,-0.0623115\PG=C01 [X(Si6)]\\@


 "WHERE SHALL I START, PLEASE YOUR MAJESTY?" HE ASKED.
 "BEGIN AT THE BEGINNING," THE KING SAID GRAVELY,
 "AND GO ON TILL YOU COME TO THE END: THEN STOP." 

                                      -- LEWIS CARROLL
 Job cpu time:       0 days  0 hours 46 minutes 29.8 seconds.
 Elapsed time:       0 days  0 hours 46 minutes 33.5 seconds.
 File lengths (MBytes):  RWF=     51 Int=      0 D2E=      0 Chk=      6 Scr=      1
 Normal termination of Gaussian 16 at Sat May 18 19:32:15 2024.
