 Entering Gaussian System, Link 0=g16
 Input=inputFiles/Test6.com
 Output=inputFiles/Test6.log
 Initial command:
 /home/mark/gaussian/g16/l1.exe "/home/mark/gaussian/scratch/Gau-2442.inp" -scrdir="/home/mark/gaussian/scratch/"
 Entering Link 1 = /home/mark/gaussian/g16/l1.exe PID=      2444.
  
 Copyright (c) 1988,1990,1992,1993,1995,1998,2003,2009,2016,
            Gaussian, Inc.  All Rights Reserved.
  
 This is part of the Gaussian(R) 16 program.  It is based on
 the Gaussian(R) 09 system (copyright 2009, Gaussian, Inc.),
 the Gaussian(R) 03 system (copyright 2003, Gaussian, Inc.),
 the Gaussian(R) 98 system (copyright 1998, Gaussian, Inc.),
 the Gaussian(R) 94 system (copyright 1995, Gaussian, Inc.),
 the Gaussian 92(TM) system (copyright 1992, Gaussian, Inc.),
 the Gaussian 90(TM) system (copyright 1990, Gaussian, Inc.),
 the Gaussian 88(TM) system (copyright 1988, Gaussian, Inc.),
 the Gaussian 86(TM) system (copyright 1986, Carnegie Mellon
 University), and the Gaussian 82(TM) system (copyright 1983,
 Carnegie Mellon University). Gaussian is a federally registered
 trademark of Gaussian, Inc.
  
 This software contains proprietary and confidential information,
 including trade secrets, belonging to Gaussian, Inc.
  
 This software is provided under written license and may be
 used, copied, transmitted, or stored only in accord with that
 written license.
  
 The following legend is applicable only to US Government
 contracts under FAR:
  
                    RESTRICTED RIGHTS LEGEND
  
 Use, reproduction and disclosure by the US Government is
 subject to restrictions as set forth in subparagraphs (a)
 and (c) of the Commercial Computer Software - Restricted
 Rights clause in FAR 52.227-19.
  
 Gaussian, Inc.
 340 Quinnipiac St., Bldg. 40, Wallingford CT 06492
  
  
 ---------------------------------------------------------------
 Warning -- This program may not be used in any manner that
 competes with the business of Gaussian, Inc. or will provide
 assistance to any competitor of Gaussian, Inc.  The licensee
 of this program is prohibited from giving any competitor of
 Gaussian, Inc. access to this program.  By using this program,
 the user acknowledges that Gaussian, Inc. is engaged in the
 business of creating and licensing software in the field of
 computational chemistry and represents and warrants to the
 licensee that it is not a competitor of Gaussian, Inc. and that
 it will not use this program in any manner prohibited above.
 ---------------------------------------------------------------
  

 Cite this work as:
 Gaussian 16, Revision A.03,
 M. J. Frisch, G. W. Trucks, H. B. Schlegel, G. E. Scuseria, 
 M. A. Robb, J. R. Cheeseman, G. Scalmani, V. Barone, 
 G. A. Petersson, H. Nakatsuji, X. Li, M. Caricato, A. V. Marenich, 
 J. Bloino, B. G. Janesko, R. Gomperts, B. Mennucci, H. P. Hratchian, 
 J. V. Ortiz, A. F. Izmaylov, J. L. Sonnenberg, D. Williams-Young, 
 F. Ding, F. Lipparini, F. Egidi, J. Goings, B. Peng, A. Petrone, 
 T. Henderson, D. Ranasinghe, V. G. Zakrzewski, J. Gao, N. Rega, 
 G. Zheng, W. Liang, M. Hada, M. Ehara, K. Toyota, R. Fukuda, 
 J. Hasegawa, M. Ishida, T. Nakajima, Y. Honda, O. Kitao, H. Nakai, 
 T. Vreven, K. Throssell, J. A. Montgomery, Jr., J. E. Peralta, 
 F. Ogliaro, M. J. Bearpark, J. J. Heyd, E. N. Brothers, K. N. Kudin, 
 V. N. Staroverov, T. A. Keith, R. Kobayashi, J. Normand, 
 K. Raghavachari, A. P. Rendell, J. C. Burant, S. S. Iyengar, 
 J. Tomasi, M. Cossi, J. M. Millam, M. Klene, C. Adamo, R. Cammi, 
 J. W. Ochterski, R. L. Martin, K. Morokuma, O. Farkas, 
 J. B. Foresman, and D. J. Fox, Gaussian, Inc., Wallingford CT, 2016.
 
 ******************************************
 Gaussian 16:  ES64L-G16RevA.03 25-Dec-2016
                18-May-2024 
 ******************************************
 %NProcShared=1
 Will use up to    1 processors via shared memory.
 %chk=inputFiles/test6.chk
 --------------------
 # wb97xd/aug-cc-pvtz
 --------------------
 1/38=1,172=1/1;
 2/12=2,17=6,18=5,40=1/2;
 3/5=16,6=1,7=10,11=2,25=1,30=1,74=-58/1,2,3;
 4//1;
 5/5=2,38=5/2;
 6/7=2,8=2,9=2,10=2,28=1/1;
 99/5=1,9=1/99;
 ------
 Title6
 ------
 Symbolic Z-matrix:
 Charge =  0 Multiplicity = 1
 Si                    2.78     -0.73      5.27 
 Si                    1.82      5.08      2.62 
 Si                   -0.29      2.56      5.42 
 Si                    2.61      2.79      4.63 
 Si                    0.81      3.73      4.63 
 Si                   -1.65      3.25      4.77 
 
                          Input orientation:                          
 ---------------------------------------------------------------------
 Center     Atomic      Atomic             Coordinates (Angstroms)
 Number     Number       Type             X           Y           Z
 ---------------------------------------------------------------------
      1         14           0        2.780000   -0.730000    5.270000
      2         14           0        1.820000    5.080000    2.620000
      3         14           0       -0.290000    2.560000    5.420000
      4         14           0        2.610000    2.790000    4.630000
      5         14           0        0.810000    3.730000    4.630000
      6         14           0       -1.650000    3.250000    4.770000
 ---------------------------------------------------------------------
                    Distance matrix (angstroms):
                    1          2          3          4          5
     1  Si   0.000000
     2  Si   6.457569   0.000000
     3  Si   4.502388   4.317696   0.000000
     4  Si   3.581745   3.147745   3.014465   0.000000
     5  Si   4.917530   2.623490   1.789693   2.030665   0.000000
     6  Si   5.976228   4.473511   1.657770   4.287050   2.510299
                    6
     6  Si   0.000000
 Stoichiometry    Si6
 Framework group  C1[X(Si6)]
 Deg. of freedom    12
 Full point group                 C1      NOp   1
 Largest Abelian subgroup         C1      NOp   1
 Largest concise Abelian subgroup C1      NOp   1
                         Standard orientation:                         
 ---------------------------------------------------------------------
 Center     Atomic      Atomic             Coordinates (Angstroms)
 Number     Number       Type             X           Y           Z
 ---------------------------------------------------------------------
      1         14           0        3.975481    0.020456   -0.381039
      2         14           0       -2.076060    2.272538   -0.465760
      3         14           0       -0.194766   -1.540485    0.285297
      4         14           0        0.756418    1.310800    0.514253
      5         14           0       -0.877285    0.109289    0.409449
      6         14           0       -1.583787   -2.172599   -0.362201
 ---------------------------------------------------------------------
 Rotational constants (GHZ):           1.2046707           0.7222939           0.4754864
 Standard basis: Aug-CC-pVTZ (5D, 7F)
 There are   354 symmetry adapted cartesian basis functions of A   symmetry.
 There are   300 symmetry adapted basis functions of A   symmetry.
   300 basis functions,   690 primitive gaussians,   354 cartesian basis functions
    42 alpha electrons       42 beta electrons
       nuclear repulsion energy       497.7067105788 Hartrees.
 NAtoms=    6 NActive=    6 NUniq=    6 SFac= 1.00D+00 NAtFMM=   60 NAOKFM=F Big=F
 Integral buffers will be    131072 words long.
 Raffenetti 2 integral format.
 Two-electron integral symmetry is turned on.
 Nuclear repulsion after empirical dispersion term =      497.7039929552 Hartrees.
 One-electron integrals computed using PRISM.
 NBasis=   300 RedAO= T EigKep=  2.61D-05  NBF=   300
 NBsUse=   300 1.00D-06 EigRej= -1.00D+00 NBFU=   300
 ExpMin= 2.37D-02 ExpMax= 2.55D+05 ExpMxC= 2.46D+03 IAcc=3 IRadAn=         5 AccDes= 0.00D+00
 Harris functional with IExCor= 4639 and IRadAn=       5 diagonalized for initial guess.
 HarFok:  IExCor= 4639 AccDes= 0.00D+00 IRadAn=         5 IDoV= 1 UseB2=F ITyADJ=14
 ICtDFT=  3500011 ScaDFX=  1.000000  1.000000  1.000000  1.000000
 FoFCou: FMM=F IPFlag=           0 FMFlag=      100000 FMFlg1=           0
         NFxFlg=           0 DoJE=T BraDBF=F KetDBF=T FulRan=T
         wScrn=  0.000000 ICntrl=       500 IOpCl=  0 I1Cent=   200000004 NGrid=           0
         NMat0=    1 NMatS0=      1 NMatT0=    0 NMatD0=    1 NMtDS0=    0 NMtDT0=    0
 Petite list used in FoFCou.
 Requested convergence on RMS density matrix=1.00D-08 within 128 cycles.
 Requested convergence on MAX density matrix=1.00D-06.
 Requested convergence on             energy=1.00D-06.
 No special actions if energy rises.
 Rare condition: small coef for last iteration:  0.000D+00
 EnCoef did   100 forward-backward iterations
 Restarting incremental Fock formation.
 Restarting incremental Fock formation.
 SCF Done:  E(RwB97XD) =  -1736.31824058     A.U. after   47 cycles
            NFock= 47  Conv=0.15D-08     -V/T= 2.0017

 **********************************************************************

            Population analysis using the SCF density.

 **********************************************************************

 Orbital symmetries:
       Occupied  (A) (A) (A) (A) (A) (A) (A) (A) (A) (A) (A) (A)
                 (A) (A) (A) (A) (A) (A) (A) (A) (A) (A) (A) (A)
                 (A) (A) (A) (A) (A) (A) (A) (A) (A) (A) (A) (A)
                 (A) (A) (A) (A) (A) (A)
       Virtual   (A) (A) (A) (A) (A) (A) (A) (A) (A) (A) (A) (A)
                 (A) (A) (A) (A) (A) (A) (A) (A) (A) (A) (A) (A)
                 (A) (A) (A) (A) (A) (A) (A) (A) (A) (A) (A) (A)
                 (A) (A) (A) (A) (A) (A) (A) (A) (A) (A) (A) (A)
                 (A) (A) (A) (A) (A) (A) (A) (A) (A) (A) (A) (A)
                 (A) (A) (A) (A) (A) (A) (A) (A) (A) (A) (A) (A)
                 (A) (A) (A) (A) (A) (A) (A) (A) (A) (A) (A) (A)
                 (A) (A) (A) (A) (A) (A) (A) (A) (A) (A) (A) (A)
                 (A) (A) (A) (A) (A) (A) (A) (A) (A) (A) (A) (A)
                 (A) (A) (A) (A) (A) (A) (A) (A) (A) (A) (A) (A)
                 (A) (A) (A) (A) (A) (A) (A) (A) (A) (A) (A) (A)
                 (A) (A) (A) (A) (A) (A) (A) (A) (A) (A) (A) (A)
                 (A) (A) (A) (A) (A) (A) (A) (A) (A) (A) (A) (A)
                 (A) (A) (A) (A) (A) (A) (A) (A) (A) (A) (A) (A)
                 (A) (A) (A) (A) (A) (A) (A) (A) (A) (A) (A) (A)
                 (A) (A) (A) (A) (A) (A) (A) (A) (A) (A) (A) (A)
                 (A) (A) (A) (A) (A) (A) (A) (A) (A) (A) (A) (A)
                 (A) (A) (A) (A) (A) (A) (A) (A) (A) (A) (A) (A)
                 (A) (A) (A) (A) (A) (A) (A) (A) (A) (A) (A) (A)
                 (A) (A) (A) (A) (A) (A) (A) (A) (A) (A) (A) (A)
                 (A) (A) (A) (A) (A) (A) (A) (A) (A) (A) (A) (A)
                 (A) (A) (A) (A) (A) (A)
 The electronic state is 1-A.
 Alpha  occ. eigenvalues --  -66.37002 -66.33741 -66.31390 -66.29002 -66.28508
 Alpha  occ. eigenvalues --  -66.26399  -5.46787  -5.43676  -5.42070  -5.41408
 Alpha  occ. eigenvalues --   -5.41125  -5.40541  -3.81546  -3.81210  -3.80708
 Alpha  occ. eigenvalues --   -3.78583  -3.78505  -3.77012  -3.76685  -3.76488
 Alpha  occ. eigenvalues --   -3.76374  -3.76219  -3.76044  -3.75710  -3.75533
 Alpha  occ. eigenvalues --   -3.75183  -3.74947  -3.74652  -3.74476  -3.74350
 Alpha  occ. eigenvalues --   -0.77019  -0.64381  -0.54724  -0.50848  -0.47796
 Alpha  occ. eigenvalues --   -0.42627  -0.39034  -0.35381  -0.31404  -0.27712
 Alpha  occ. eigenvalues --   -0.27219  -0.22375
 Alpha virt. eigenvalues --   -0.08800  -0.07209  -0.05161  -0.04768  -0.01625
 Alpha virt. eigenvalues --   -0.00529   0.00743   0.01542   0.03865   0.04164
 Alpha virt. eigenvalues --    0.04576   0.04839   0.05311   0.05935   0.06321
 Alpha virt. eigenvalues --    0.06645   0.06923   0.07446   0.08009   0.08361
 Alpha virt. eigenvalues --    0.08719   0.08947   0.09190   0.09277   0.09446
 Alpha virt. eigenvalues --    0.10309   0.10912   0.11554   0.12838   0.13491
 Alpha virt. eigenvalues --    0.13856   0.14529   0.14961   0.15091   0.15722
 Alpha virt. eigenvalues --    0.15891   0.16267   0.16749   0.17113   0.17544
 Alpha virt. eigenvalues --    0.17749   0.17984   0.18945   0.19547   0.19935
 Alpha virt. eigenvalues --    0.20449   0.21006   0.21387   0.21865   0.22333
 Alpha virt. eigenvalues --    0.22762   0.22900   0.23523   0.23577   0.23992
 Alpha virt. eigenvalues --    0.25249   0.25512   0.26149   0.26662   0.27029
 Alpha virt. eigenvalues --    0.28441   0.28750   0.29625   0.30096   0.30689
 Alpha virt. eigenvalues --    0.32240   0.32674   0.33524   0.33875   0.35331
 Alpha virt. eigenvalues --    0.35975   0.36341   0.37685   0.38659   0.39144
 Alpha virt. eigenvalues --    0.39327   0.39748   0.40178   0.40299   0.41186
 Alpha virt. eigenvalues --    0.41338   0.41909   0.42046   0.42503   0.43111
 Alpha virt. eigenvalues --    0.43226   0.43481   0.44153   0.44431   0.45228
 Alpha virt. eigenvalues --    0.45332   0.45875   0.46496   0.46798   0.46896
 Alpha virt. eigenvalues --    0.47882   0.48213   0.48334   0.48549   0.49439
 Alpha virt. eigenvalues --    0.49885   0.50954   0.51619   0.52050   0.52487
 Alpha virt. eigenvalues --    0.52907   0.54222   0.54243   0.54648   0.55763
 Alpha virt. eigenvalues --    0.56091   0.56333   0.56973   0.57594   0.57966
 Alpha virt. eigenvalues --    0.58775   0.59862   0.60496   0.61257   0.61354
 Alpha virt. eigenvalues --    0.61779   0.62871   0.63213   0.64706   0.65583
 Alpha virt. eigenvalues --    0.66131   0.67305   0.67773   0.68277   0.69494
 Alpha virt. eigenvalues --    0.70122   0.70927   0.71855   0.72718   0.72985
 Alpha virt. eigenvalues --    0.73558   0.73987   0.75908   0.76613   0.77263
 Alpha virt. eigenvalues --    0.78628   0.81128   0.82183   0.82936   0.83803
 Alpha virt. eigenvalues --    0.86462   0.87135   0.87662   0.89452   0.91090
 Alpha virt. eigenvalues --    0.92083   0.92309   0.97756   0.99279   1.00713
 Alpha virt. eigenvalues --    1.01403   1.04889   1.06218   1.09665   1.12207
 Alpha virt. eigenvalues --    1.15156   1.16079   1.16466   1.17400   1.17691
 Alpha virt. eigenvalues --    1.18377   1.18996   1.19353   1.20384   1.21134
 Alpha virt. eigenvalues --    1.21779   1.23745   1.24033   1.25303   1.25638
 Alpha virt. eigenvalues --    1.26069   1.28120   1.28918   1.29496   1.30999
 Alpha virt. eigenvalues --    1.31793   1.32035   1.32873   1.33242   1.33856
 Alpha virt. eigenvalues --    1.33983   1.34833   1.35399   1.35560   1.36206
 Alpha virt. eigenvalues --    1.36738   1.37515   1.37991   1.38388   1.38877
 Alpha virt. eigenvalues --    1.39356   1.39980   1.40374   1.40909   1.41259
 Alpha virt. eigenvalues --    1.42141   1.42625   1.43738   1.44542   1.45382
 Alpha virt. eigenvalues --    1.47115   1.48353   1.49064   1.50338   1.50881
 Alpha virt. eigenvalues --    1.52766   1.53513   1.54879   1.56585   1.57237
 Alpha virt. eigenvalues --    1.60275   1.63539   1.65469   1.66969   1.70963
 Alpha virt. eigenvalues --    1.71924   1.73872   1.76014   1.77309   1.78608
 Alpha virt. eigenvalues --    1.83226   1.88477   1.88652   1.94582   1.97247
 Alpha virt. eigenvalues --    1.98363   2.10876   2.15407   2.27808   2.33220
 Alpha virt. eigenvalues --    2.36750   2.38708   2.43166   2.46311   2.53527
 Alpha virt. eigenvalues --    2.66082   2.73697   2.76072   2.83169   2.86244
 Alpha virt. eigenvalues --    2.91900   2.98494   2.99557   3.04300   3.18647
 Alpha virt. eigenvalues --    3.22867   3.30394   3.48453   3.62461   4.81232
 Alpha virt. eigenvalues --    5.71335   6.16565   7.57830
          Condensed to atoms (all electrons):
               1          2          3          4          5          6
     1  Si  13.970523  -0.001027   0.033116   0.066959  -0.001990  -0.007571
     2  Si  -0.001027  13.717025  -0.009714   0.142123   0.185977  -0.039346
     3  Si   0.033116  -0.009714  13.475620   0.131331  -0.077435   0.519107
     4  Si   0.066959   0.142123   0.131331  13.848216   0.175256   0.000450
     5  Si  -0.001990   0.185977  -0.077435   0.175256  12.888890  -0.011809
     6  Si  -0.007571  -0.039346   0.519107   0.000450  -0.011809  13.888868
 Mulliken charges:
               1
     1  Si  -0.060010
     2  Si   0.004962
     3  Si  -0.072026
     4  Si  -0.364336
     5  Si   0.841110
     6  Si  -0.349700
 Sum of Mulliken charges =  -0.00000
 Mulliken charges with hydrogens summed into heavy atoms:
               1
     1  Si  -0.060010
     2  Si   0.004962
     3  Si  -0.072026
     4  Si  -0.364336
     5  Si   0.841110
     6  Si  -0.349700
 Electronic spatial extent (au):  <R**2>=           2127.3272
 Charge=             -0.0000 electrons
 Dipole moment (field-independent basis, Debye):
    X=             -1.9310    Y=              0.4625    Z=             -0.4030  Tot=              2.0261
 Quadrupole moment (field-independent basis, Debye-Ang):
   XX=            -81.3388   YY=            -81.4543   ZZ=            -76.1421
   XY=            -10.6577   XZ=              2.5977   YZ=              0.2420
 Traceless Quadrupole moment (field-independent basis, Debye-Ang):
   XX=             -1.6937   YY=             -1.8092   ZZ=              3.5029
   XY=            -10.6577   XZ=              2.5977   YZ=              0.2420
 Octapole moment (field-independent basis, Debye-Ang**2):
  XXX=            -27.9628  YYY=             -8.6292  ZZZ=             -4.5515  XYY=            -28.9803
  XXY=            -11.0263  XXZ=              5.4544  XZZ=             -3.0480  YZZ=             -2.1594
  YYZ=              0.4565  XYZ=             11.6873
 Hexadecapole moment (field-independent basis, Debye-Ang**3):
 XXXX=          -2165.1341 YYYY=          -1279.8620 ZZZZ=           -218.4422 XXXY=           -224.3060
 XXXZ=             59.7220 YYYX=            -41.9900 YYYZ=              8.3732 ZZZX=              5.6601
 ZZZY=             -5.3255 XXYY=           -641.3217 XXZZ=           -365.5508 YYZZ=           -244.8095
 XXYZ=             25.5363 YYXZ=             15.2777 ZZXY=            -19.7725
 N-N= 4.977039929552D+02 E-N=-5.131785895286D+03  KE= 1.733402450339D+03
 1\1\GINC-MSI\SP\RwB97XD\Aug-CC-pVTZ\Si6\MARK\18-May-2024\0\\# wb97xd/a
 ug-cc-pvtz\\Title6\\0,1\Si,0,2.78,-0.73,5.27\Si,0,1.82,5.08,2.62\Si,0,
 -0.29,2.56,5.42\Si,0,2.61,2.79,4.63\Si,0,0.81,3.73,4.63\Si,0,-1.65,3.2
 5,4.77\\Version=ES64L-G16RevA.03\State=1-A\HF=-1736.3182406\RMSD=1.508
 e-09\Dipole=-0.2464341,0.633546,-0.4163083\Quadrupole=-6.6346124,2.482
 2243,4.1523882,4.8379759,1.8406401,-3.3364013\PG=C01 [X(Si6)]\\@


 TIME GOES, YOU SAY?  AH NO!
 ALAS, TIME STAYS, WE GO.
    -- A. DOBSON (1840-1921)
 Job cpu time:       0 days  0 hours 56 minutes 51.9 seconds.
 Elapsed time:       0 days  0 hours 56 minutes 57.2 seconds.
 File lengths (MBytes):  RWF=     51 Int=      0 D2E=      0 Chk=      6 Scr=      1
 Normal termination of Gaussian 16 at Sat May 18 22:16:49 2024.
