 Entering Gaussian System, Link 0=g16
 Input=inputFiles/Test3.com
 Output=inputFiles/Test3.log
 Initial command:
 /home/mark/gaussian/g16/l1.exe "/home/mark/gaussian/scratch/Gau-2430.inp" -scrdir="/home/mark/gaussian/scratch/"
 Entering Link 1 = /home/mark/gaussian/g16/l1.exe PID=      2432.
  
 Copyright (c) 1988,1990,1992,1993,1995,1998,2003,2009,2016,
            Gaussian, Inc.  All Rights Reserved.
  
 This is part of the Gaussian(R) 16 program.  It is based on
 the Gaussian(R) 09 system (copyright 2009, Gaussian, Inc.),
 the Gaussian(R) 03 system (copyright 2003, Gaussian, Inc.),
 the Gaussian(R) 98 system (copyright 1998, Gaussian, Inc.),
 the Gaussian(R) 94 system (copyright 1995, Gaussian, Inc.),
 the Gaussian 92(TM) system (copyright 1992, Gaussian, Inc.),
 the Gaussian 90(TM) system (copyright 1990, Gaussian, Inc.),
 the Gaussian 88(TM) system (copyright 1988, Gaussian, Inc.),
 the Gaussian 86(TM) system (copyright 1986, Carnegie Mellon
 University), and the Gaussian 82(TM) system (copyright 1983,
 Carnegie Mellon University). Gaussian is a federally registered
 trademark of Gaussian, Inc.
  
 This software contains proprietary and confidential information,
 including trade secrets, belonging to Gaussian, Inc.
  
 This software is provided under written license and may be
 used, copied, transmitted, or stored only in accord with that
 written license.
  
 The following legend is applicable only to US Government
 contracts under FAR:
  
                    RESTRICTED RIGHTS LEGEND
  
 Use, reproduction and disclosure by the US Government is
 subject to restrictions as set forth in subparagraphs (a)
 and (c) of the Commercial Computer Software - Restricted
 Rights clause in FAR 52.227-19.
  
 Gaussian, Inc.
 340 Quinnipiac St., Bldg. 40, Wallingford CT 06492
  
  
 ---------------------------------------------------------------
 Warning -- This program may not be used in any manner that
 competes with the business of Gaussian, Inc. or will provide
 assistance to any competitor of Gaussian, Inc.  The licensee
 of this program is prohibited from giving any competitor of
 Gaussian, Inc. access to this program.  By using this program,
 the user acknowledges that Gaussian, Inc. is engaged in the
 business of creating and licensing software in the field of
 computational chemistry and represents and warrants to the
 licensee that it is not a competitor of Gaussian, Inc. and that
 it will not use this program in any manner prohibited above.
 ---------------------------------------------------------------
  

 Cite this work as:
 Gaussian 16, Revision A.03,
 M. J. Frisch, G. W. Trucks, H. B. Schlegel, G. E. Scuseria, 
 M. A. Robb, J. R. Cheeseman, G. Scalmani, V. Barone, 
 G. A. Petersson, H. Nakatsuji, X. Li, M. Caricato, A. V. Marenich, 
 J. Bloino, B. G. Janesko, R. Gomperts, B. Mennucci, H. P. Hratchian, 
 J. V. Ortiz, A. F. Izmaylov, J. L. Sonnenberg, D. Williams-Young, 
 F. Ding, F. Lipparini, F. Egidi, J. Goings, B. Peng, A. Petrone, 
 T. Henderson, D. Ranasinghe, V. G. Zakrzewski, J. Gao, N. Rega, 
 G. Zheng, W. Liang, M. Hada, M. Ehara, K. Toyota, R. Fukuda, 
 J. Hasegawa, M. Ishida, T. Nakajima, Y. Honda, O. Kitao, H. Nakai, 
 T. Vreven, K. Throssell, J. A. Montgomery, Jr., J. E. Peralta, 
 F. Ogliaro, M. J. Bearpark, J. J. Heyd, E. N. Brothers, K. N. Kudin, 
 V. N. Staroverov, T. A. Keith, R. Kobayashi, J. Normand, 
 K. Raghavachari, A. P. Rendell, J. C. Burant, S. S. Iyengar, 
 J. Tomasi, M. Cossi, J. M. Millam, M. Klene, C. Adamo, R. Cammi, 
 J. W. Ochterski, R. L. Martin, K. Morokuma, O. Farkas, 
 J. B. Foresman, and D. J. Fox, Gaussian, Inc., Wallingford CT, 2016.
 
 ******************************************
 Gaussian 16:  ES64L-G16RevA.03 25-Dec-2016
                18-May-2024 
 ******************************************
 %NProcShared=1
 Will use up to    1 processors via shared memory.
 %chk=inputFiles/test3.chk
 --------------------
 # wb97xd/aug-cc-pvtz
 --------------------
 1/38=1,172=1/1;
 2/12=2,17=6,18=5,40=1/2;
 3/5=16,6=1,7=10,11=2,25=1,30=1,74=-58/1,2,3;
 4//1;
 5/5=2,38=5/2;
 6/7=2,8=2,9=2,10=2,28=1/1;
 99/5=1,9=1/99;
 ------
 Title3
 ------
 Symbolic Z-matrix:
 Charge =  0 Multiplicity = 1
 Si                    4.16     -1.09      7.9 
 Si                    2.73      7.62      3.94 
 Si                   -0.44      3.85      8.12 
 Si                    3.91      4.18      6.94 
 Si                    1.22      5.59      6.95 
 Si                   -2.48      4.87      7.15 
 
                          Input orientation:                          
 ---------------------------------------------------------------------
 Center     Atomic      Atomic             Coordinates (Angstroms)
 Number     Number       Type             X           Y           Z
 ---------------------------------------------------------------------
      1         14           0        4.160000   -1.090000    7.900000
      2         14           0        2.730000    7.620000    3.940000
      3         14           0       -0.440000    3.850000    8.120000
      4         14           0        3.910000    4.180000    6.940000
      5         14           0        1.220000    5.590000    6.950000
      6         14           0       -2.480000    4.870000    7.150000
 ---------------------------------------------------------------------
                    Distance matrix (angstroms):
                    1          2          3          4          5
     1  Si   0.000000
     2  Si   9.674223   0.000000
     3  Si   6.753666   6.460201   0.000000
     4  Si   5.362555   4.714446   4.519270   0.000000
     5  Si   7.359925   3.932061   2.674341   3.037153   0.000000
     6  Si   8.953977   6.709001   2.478487   6.430575   3.774705
                    6
     6  Si   0.000000
 Stoichiometry    Si6
 Framework group  C1[X(Si6)]
 Deg. of freedom    12
 Full point group                 C1      NOp   1
 Largest Abelian subgroup         C1      NOp   1
 Largest concise Abelian subgroup C1      NOp   1
                         Standard orientation:                         
 ---------------------------------------------------------------------
 Center     Atomic      Atomic             Coordinates (Angstroms)
 Number     Number       Type             X           Y           Z
 ---------------------------------------------------------------------
      1         14           0        5.955554    0.019193   -0.568857
      2         14           0       -3.104355    3.409195   -0.697441
      3         14           0       -0.306978   -2.303950    0.428994
      4         14           0        1.139078    1.964682    0.762921
      5         14           0       -1.306394    0.169371    0.618604
      6         14           0       -2.376905   -3.258491   -0.544221
 ---------------------------------------------------------------------
 Rotational constants (GHZ):           0.5361463           0.3219490           0.2117934
 Standard basis: Aug-CC-pVTZ (5D, 7F)
 There are   354 symmetry adapted cartesian basis functions of A   symmetry.
 There are   300 symmetry adapted basis functions of A   symmetry.
   300 basis functions,   690 primitive gaussians,   354 cartesian basis functions
    42 alpha electrons       42 beta electrons
       nuclear repulsion energy       332.3254229262 Hartrees.
 NAtoms=    6 NActive=    6 NUniq=    6 SFac= 1.00D+00 NAtFMM=   60 NAOKFM=F Big=F
 Integral buffers will be    131072 words long.
 Raffenetti 2 integral format.
 Two-electron integral symmetry is turned on.
 Nuclear repulsion after empirical dispersion term =      332.3233012372 Hartrees.
 One-electron integrals computed using PRISM.
 NBasis=   300 RedAO= T EigKep=  2.34D-04  NBF=   300
 NBsUse=   300 1.00D-06 EigRej= -1.00D+00 NBFU=   300
 ExpMin= 2.37D-02 ExpMax= 2.55D+05 ExpMxC= 2.46D+03 IAcc=3 IRadAn=         5 AccDes= 0.00D+00
 Harris functional with IExCor= 4639 and IRadAn=       5 diagonalized for initial guess.
 HarFok:  IExCor= 4639 AccDes= 0.00D+00 IRadAn=         5 IDoV= 1 UseB2=F ITyADJ=14
 ICtDFT=  3500011 ScaDFX=  1.000000  1.000000  1.000000  1.000000
 FoFCou: FMM=F IPFlag=           0 FMFlag=      100000 FMFlg1=           0
         NFxFlg=           0 DoJE=T BraDBF=F KetDBF=T FulRan=T
         wScrn=  0.000000 ICntrl=       500 IOpCl=  0 I1Cent=   200000004 NGrid=           0
         NMat0=    1 NMatS0=      1 NMatT0=    0 NMatD0=    1 NMtDS0=    0 NMtDT0=    0
 Petite list used in FoFCou.
 Requested convergence on RMS density matrix=1.00D-08 within 128 cycles.
 Requested convergence on MAX density matrix=1.00D-06.
 Requested convergence on             energy=1.00D-06.
 No special actions if energy rises.
 Rare condition: small coef for last iteration:  0.000D+00
 EnCoef did   100 forward-backward iterations
 EnCoef did     2 forward-backward iterations
 EnCoef did     2 forward-backward iterations
 Restarting incremental Fock formation.
 Restarting incremental Fock formation.
 Restarting incremental Fock formation.
 Restarting incremental Fock formation.
 SCF Done:  E(RwB97XD) =  -1736.32676967     A.U. after   85 cycles
            NFock= 85  Conv=0.60D-08     -V/T= 2.0034

 **********************************************************************

            Population analysis using the SCF density.

 **********************************************************************

 Orbital symmetries:
       Occupied  (A) (A) (A) (A) (A) (A) (A) (A) (A) (A) (A) (A)
                 (A) (A) (A) (A) (A) (A) (A) (A) (A) (A) (A) (A)
                 (A) (A) (A) (A) (A) (A) (A) (A) (A) (A) (A) (A)
                 (A) (A) (A) (A) (A) (A)
       Virtual   (A) (A) (A) (A) (A) (A) (A) (A) (A) (A) (A) (A)
                 (A) (A) (A) (A) (A) (A) (A) (A) (A) (A) (A) (A)
                 (A) (A) (A) (A) (A) (A) (A) (A) (A) (A) (A) (A)
                 (A) (A) (A) (A) (A) (A) (A) (A) (A) (A) (A) (A)
                 (A) (A) (A) (A) (A) (A) (A) (A) (A) (A) (A) (A)
                 (A) (A) (A) (A) (A) (A) (A) (A) (A) (A) (A) (A)
                 (A) (A) (A) (A) (A) (A) (A) (A) (A) (A) (A) (A)
                 (A) (A) (A) (A) (A) (A) (A) (A) (A) (A) (A) (A)
                 (A) (A) (A) (A) (A) (A) (A) (A) (A) (A) (A) (A)
                 (A) (A) (A) (A) (A) (A) (A) (A) (A) (A) (A) (A)
                 (A) (A) (A) (A) (A) (A) (A) (A) (A) (A) (A) (A)
                 (A) (A) (A) (A) (A) (A) (A) (A) (A) (A) (A) (A)
                 (A) (A) (A) (A) (A) (A) (A) (A) (A) (A) (A) (A)
                 (A) (A) (A) (A) (A) (A) (A) (A) (A) (A) (A) (A)
                 (A) (A) (A) (A) (A) (A) (A) (A) (A) (A) (A) (A)
                 (A) (A) (A) (A) (A) (A) (A) (A) (A) (A) (A) (A)
                 (A) (A) (A) (A) (A) (A) (A) (A) (A) (A) (A) (A)
                 (A) (A) (A) (A) (A) (A) (A) (A) (A) (A) (A) (A)
                 (A) (A) (A) (A) (A) (A) (A) (A) (A) (A) (A) (A)
                 (A) (A) (A) (A) (A) (A) (A) (A) (A) (A) (A) (A)
                 (A) (A) (A) (A) (A) (A) (A) (A) (A) (A) (A) (A)
                 (A) (A) (A) (A) (A) (A)
 The electronic state is 1-A.
 Alpha  occ. eigenvalues --  -66.39137 -66.36217 -66.35634 -66.33055 -66.32959
 Alpha  occ. eigenvalues --  -66.27792  -5.48808  -5.46160  -5.45502  -5.42949
 Alpha  occ. eigenvalues --   -5.42812  -5.37973  -3.83632  -3.83497  -3.82392
 Alpha  occ. eigenvalues --   -3.81062  -3.81062  -3.80396  -3.80304  -3.79425
 Alpha  occ. eigenvalues --   -3.78878  -3.77755  -3.77473  -3.77433  -3.77252
 Alpha  occ. eigenvalues --   -3.76906  -3.76722  -3.72547  -3.72357  -3.72147
 Alpha  occ. eigenvalues --   -0.58421  -0.55543  -0.52741  -0.51963  -0.49749
 Alpha  occ. eigenvalues --   -0.42744  -0.29073  -0.27656  -0.24873  -0.24742
 Alpha  occ. eigenvalues --   -0.24091  -0.23451
 Alpha virt. eigenvalues --   -0.09336  -0.07961  -0.06619  -0.06559  -0.06362
 Alpha virt. eigenvalues --   -0.05799  -0.03868  -0.03631   0.00724   0.01624
 Alpha virt. eigenvalues --    0.04178   0.04248   0.04996   0.05506   0.05709
 Alpha virt. eigenvalues --    0.06041   0.06434   0.07145   0.07205   0.07501
 Alpha virt. eigenvalues --    0.08141   0.08331   0.08509   0.08912   0.09336
 Alpha virt. eigenvalues --    0.09466   0.09705   0.09989   0.10123   0.10495
 Alpha virt. eigenvalues --    0.11375   0.11815   0.12502   0.12925   0.13111
 Alpha virt. eigenvalues --    0.13512   0.13809   0.14326   0.14604   0.15093
 Alpha virt. eigenvalues --    0.15578   0.16134   0.16677   0.17190   0.17662
 Alpha virt. eigenvalues --    0.17670   0.18397   0.18776   0.18903   0.19647
 Alpha virt. eigenvalues --    0.19988   0.20336   0.20535   0.20977   0.21568
 Alpha virt. eigenvalues --    0.22166   0.22763   0.23246   0.23891   0.24413
 Alpha virt. eigenvalues --    0.24497   0.25152   0.25315   0.26559   0.27940
 Alpha virt. eigenvalues --    0.29020   0.35097   0.35704   0.36038   0.36344
 Alpha virt. eigenvalues --    0.36953   0.37125   0.37404   0.37706   0.37853
 Alpha virt. eigenvalues --    0.37982   0.38271   0.38401   0.38433   0.38825
 Alpha virt. eigenvalues --    0.39208   0.39439   0.39545   0.39923   0.40117
 Alpha virt. eigenvalues --    0.40243   0.40802   0.40843   0.40884   0.40996
 Alpha virt. eigenvalues --    0.41448   0.41854   0.41968   0.42117   0.42353
 Alpha virt. eigenvalues --    0.43071   0.43316   0.43846   0.43857   0.44109
 Alpha virt. eigenvalues --    0.44317   0.44500   0.44609   0.44927   0.45148
 Alpha virt. eigenvalues --    0.45720   0.45946   0.46229   0.46511   0.46617
 Alpha virt. eigenvalues --    0.47028   0.47474   0.47865   0.48471   0.48899
 Alpha virt. eigenvalues --    0.49275   0.49356   0.49563   0.50399   0.50743
 Alpha virt. eigenvalues --    0.51082   0.51334   0.51646   0.52653   0.53073
 Alpha virt. eigenvalues --    0.53140   0.53967   0.54412   0.54752   0.55988
 Alpha virt. eigenvalues --    0.56230   0.57430   0.57805   0.58560   0.59224
 Alpha virt. eigenvalues --    0.60143   0.60771   0.63160   0.63685   0.64214
 Alpha virt. eigenvalues --    0.65090   0.66249   0.67216   0.68017   0.69589
 Alpha virt. eigenvalues --    0.71569   0.71980   0.72316   0.73088   0.74724
 Alpha virt. eigenvalues --    0.75786   0.76460   0.79194   0.80023   0.81697
 Alpha virt. eigenvalues --    0.82728   0.83745   0.86594   0.90320   0.92495
 Alpha virt. eigenvalues --    0.96303   1.01645   1.12011   1.12202   1.13767
 Alpha virt. eigenvalues --    1.14366   1.14666   1.15125   1.15295   1.15887
 Alpha virt. eigenvalues --    1.16168   1.16540   1.17748   1.18192   1.18675
 Alpha virt. eigenvalues --    1.19557   1.20327   1.22213   1.23366   1.23461
 Alpha virt. eigenvalues --    1.26234   1.27039   1.28247   1.28425   1.28574
 Alpha virt. eigenvalues --    1.28798   1.28996   1.29253   1.29688   1.30149
 Alpha virt. eigenvalues --    1.30414   1.30604   1.30878   1.31294   1.31581
 Alpha virt. eigenvalues --    1.31879   1.32206   1.33117   1.33268   1.33927
 Alpha virt. eigenvalues --    1.34186   1.34429   1.35038   1.35443   1.35771
 Alpha virt. eigenvalues --    1.36201   1.36628   1.37196   1.37440   1.37678
 Alpha virt. eigenvalues --    1.37892   1.38931   1.39317   1.40354   1.41237
 Alpha virt. eigenvalues --    1.41790   1.42493   1.43299   1.43460   1.44271
 Alpha virt. eigenvalues --    1.46837   1.47551   1.49174   1.51221   1.52509
 Alpha virt. eigenvalues --    1.54126   1.55794   1.57330   1.58303   1.60426
 Alpha virt. eigenvalues --    1.64628   1.66624   1.71510   1.73406   2.20686
 Alpha virt. eigenvalues --    2.21197   2.23369   2.24626   2.26759   2.29605
 Alpha virt. eigenvalues --    2.31107   2.32734   2.35649   2.39990   2.41741
 Alpha virt. eigenvalues --    2.43318   2.43522   2.46071   2.47389   2.52174
 Alpha virt. eigenvalues --    2.57333   2.72422   2.84597   2.94052   3.05184
 Alpha virt. eigenvalues --    3.14404   3.37971   3.65753
          Condensed to atoms (all electrons):
               1          2          3          4          5          6
     1  Si  13.956464   0.000026   0.001034   0.017596  -0.000786  -0.000102
     2  Si   0.000026  13.857344  -0.002224   0.046178   0.089785  -0.002610
     3  Si   0.001034  -0.002224  13.619988  -0.019473   0.235702   0.339007
     4  Si   0.017596   0.046178  -0.019473  13.506240   0.220313   0.005701
     5  Si  -0.000786   0.089785   0.235702   0.220313  13.503973   0.075677
     6  Si  -0.000102  -0.002610   0.339007   0.005701   0.075677  13.544344
 Mulliken charges:
               1
     1  Si   0.025769
     2  Si   0.011501
     3  Si  -0.174034
     4  Si   0.223444
     5  Si  -0.124664
     6  Si   0.037983
 Sum of Mulliken charges =  -0.00000
 Mulliken charges with hydrogens summed into heavy atoms:
               1
     1  Si   0.025769
     2  Si   0.011501
     3  Si  -0.174034
     4  Si   0.223444
     5  Si  -0.124664
     6  Si   0.037983
 Electronic spatial extent (au):  <R**2>=           4559.6698
 Charge=             -0.0000 electrons
 Dipole moment (field-independent basis, Debye):
    X=              2.3571    Y=              2.9963    Z=              0.2802  Tot=              3.8226
 Quadrupole moment (field-independent basis, Debye-Ang):
   XX=            -83.8296   YY=            -83.4172   ZZ=            -78.6286
   XY=             -0.2271   XZ=              2.2564   YZ=              1.5626
 Traceless Quadrupole moment (field-independent basis, Debye-Ang):
   XX=             -1.8711   YY=             -1.4587   ZZ=              3.3298
   XY=             -0.2271   XZ=              2.2564   YZ=              1.5626
 Octapole moment (field-independent basis, Debye-Ang**2):
  XXX=              4.4216  YYY=             -0.1828  ZZZ=             -0.9504  XYY=            -24.7801
  XXY=             52.6658  XXZ=             29.1528  XZZ=              9.5814  YZZ=             21.3906
  YYZ=              0.4329  XYZ=              1.6157
 Hexadecapole moment (field-independent basis, Debye-Ang**3):
 XXXX=          -5644.4656 YYYY=          -2796.0748 ZZZZ=           -332.6429 XXXY=            325.7482
 XXXZ=            198.8058 YYYX=           -178.4832 YYYZ=              1.6049 ZZZX=              8.7519
 ZZZY=             -2.2861 XXYY=          -1154.5910 XXZZ=           -791.2566 YYZZ=           -499.4226
 XXYZ=            -79.0100 YYXZ=             -1.0569 ZZXY=            -22.0253
 N-N= 3.323233012372D+02 E-N=-4.798439025178D+03  KE= 1.730418360084D+03
 1\1\GINC-MSI\SP\RwB97XD\Aug-CC-pVTZ\Si6\MARK\18-May-2024\0\\# wb97xd/a
 ug-cc-pvtz\\Title3\\0,1\Si,0,4.16,-1.09,7.9\Si,0,2.73,7.62,3.94\Si,0,-
 0.44,3.85,8.12\Si,0,3.91,4.18,6.94\Si,0,1.22,5.59,6.95\Si,0,-2.48,4.87
 ,7.15\\Version=ES64L-G16RevA.03\State=1-A\HF=-1736.3267697\RMSD=6.023e
 -09\Dipole=1.4532879,-0.3468288,-0.1715475\Quadrupole=-0.027689,-1.445
 0137,1.4727027,1.0905787,2.3139945,0.3739455\PG=C01 [X(Si6)]\\@


 EVERYTHING'S GOT A MORAL, IF ONLY YOU CAN FIND IT.

                                    -- LEWIS CARROL, ALICE IN WONDERLAND
 Job cpu time:       0 days  0 hours 54 minutes 35.3 seconds.
 Elapsed time:       0 days  0 hours 54 minutes 42.3 seconds.
 File lengths (MBytes):  RWF=     51 Int=      0 D2E=      0 Chk=      6 Scr=      1
 Normal termination of Gaussian 16 at Sat May 18 18:21:24 2024.
