 Entering Gaussian System, Link 0=g16
 Input=inputFiles/Test0.com
 Output=inputFiles/Test0.log
 Initial command:
 /home/mark/gaussian/g16/l1.exe "/home/mark/gaussian/scratch/Gau-1616.inp" -scrdir="/home/mark/gaussian/scratch/"
 Entering Link 1 = /home/mark/gaussian/g16/l1.exe PID=      1618.
  
 Copyright (c) 1988,1990,1992,1993,1995,1998,2003,2009,2016,
            Gaussian, Inc.  All Rights Reserved.
  
 This is part of the Gaussian(R) 16 program.  It is based on
 the Gaussian(R) 09 system (copyright 2009, Gaussian, Inc.),
 the Gaussian(R) 03 system (copyright 2003, Gaussian, Inc.),
 the Gaussian(R) 98 system (copyright 1998, Gaussian, Inc.),
 the Gaussian(R) 94 system (copyright 1995, Gaussian, Inc.),
 the Gaussian 92(TM) system (copyright 1992, Gaussian, Inc.),
 the Gaussian 90(TM) system (copyright 1990, Gaussian, Inc.),
 the Gaussian 88(TM) system (copyright 1988, Gaussian, Inc.),
 the Gaussian 86(TM) system (copyright 1986, Carnegie Mellon
 University), and the Gaussian 82(TM) system (copyright 1983,
 Carnegie Mellon University). Gaussian is a federally registered
 trademark of Gaussian, Inc.
  
 This software contains proprietary and confidential information,
 including trade secrets, belonging to Gaussian, Inc.
  
 This software is provided under written license and may be
 used, copied, transmitted, or stored only in accord with that
 written license.
  
 The following legend is applicable only to US Government
 contracts under FAR:
  
                    RESTRICTED RIGHTS LEGEND
  
 Use, reproduction and disclosure by the US Government is
 subject to restrictions as set forth in subparagraphs (a)
 and (c) of the Commercial Computer Software - Restricted
 Rights clause in FAR 52.227-19.
  
 Gaussian, Inc.
 340 Quinnipiac St., Bldg. 40, Wallingford CT 06492
  
  
 ---------------------------------------------------------------
 Warning -- This program may not be used in any manner that
 competes with the business of Gaussian, Inc. or will provide
 assistance to any competitor of Gaussian, Inc.  The licensee
 of this program is prohibited from giving any competitor of
 Gaussian, Inc. access to this program.  By using this program,
 the user acknowledges that Gaussian, Inc. is engaged in the
 business of creating and licensing software in the field of
 computational chemistry and represents and warrants to the
 licensee that it is not a competitor of Gaussian, Inc. and that
 it will not use this program in any manner prohibited above.
 ---------------------------------------------------------------
  

 Cite this work as:
 Gaussian 16, Revision A.03,
 M. J. Frisch, G. W. Trucks, H. B. Schlegel, G. E. Scuseria, 
 M. A. Robb, J. R. Cheeseman, G. Scalmani, V. Barone, 
 G. A. Petersson, H. Nakatsuji, X. Li, M. Caricato, A. V. Marenich, 
 J. Bloino, B. G. Janesko, R. Gomperts, B. Mennucci, H. P. Hratchian, 
 J. V. Ortiz, A. F. Izmaylov, J. L. Sonnenberg, D. Williams-Young, 
 F. Ding, F. Lipparini, F. Egidi, J. Goings, B. Peng, A. Petrone, 
 T. Henderson, D. Ranasinghe, V. G. Zakrzewski, J. Gao, N. Rega, 
 G. Zheng, W. Liang, M. Hada, M. Ehara, K. Toyota, R. Fukuda, 
 J. Hasegawa, M. Ishida, T. Nakajima, Y. Honda, O. Kitao, H. Nakai, 
 T. Vreven, K. Throssell, J. A. Montgomery, Jr., J. E. Peralta, 
 F. Ogliaro, M. J. Bearpark, J. J. Heyd, E. N. Brothers, K. N. Kudin, 
 V. N. Staroverov, T. A. Keith, R. Kobayashi, J. Normand, 
 K. Raghavachari, A. P. Rendell, J. C. Burant, S. S. Iyengar, 
 J. Tomasi, M. Cossi, J. M. Millam, M. Klene, C. Adamo, R. Cammi, 
 J. W. Ochterski, R. L. Martin, K. Morokuma, O. Farkas, 
 J. B. Foresman, and D. J. Fox, Gaussian, Inc., Wallingford CT, 2016.
 
 ******************************************
 Gaussian 16:  ES64L-G16RevA.03 25-Dec-2016
                18-May-2024 
 ******************************************
 %NProcShared=1
 Will use up to    1 processors via shared memory.
 %chk=inputFiles/test0.chk
 --------------------
 # wb97xd/aug-cc-pvtz
 --------------------
 1/38=1,172=1/1;
 2/12=2,17=6,18=5,40=1/2;
 3/5=16,6=1,7=10,11=2,25=1,30=1,74=-58/1,2,3;
 4//1;
 5/5=2,38=5/2;
 6/7=2,8=2,9=2,10=2,28=1/1;
 99/5=1,9=1/99;
 ------
 Title0
 ------
 Symbolic Z-matrix:
 Charge =  0 Multiplicity = 2
 H                     8.03      7.79      4.36 
 H                    -2.17      7.15      9.39 
 H                     6.75      2.39      9.63 
 
                          Input orientation:                          
 ---------------------------------------------------------------------
 Center     Atomic      Atomic             Coordinates (Angstroms)
 Number     Number       Type             X           Y           Z
 ---------------------------------------------------------------------
      1          1           0        8.030000    7.790000    4.360000
      2          1           0       -2.170000    7.150000    9.390000
      3          1           0        6.750000    2.390000    9.630000
 ---------------------------------------------------------------------
                    Distance matrix (angstroms):
                    1          2          3
     1  H    0.000000
     2  H   11.390808   0.000000
     3  H    7.653189  10.113437   0.000000
 Stoichiometry    H3(2)
 Framework group  CS[SG(H3)]
 Deg. of freedom     3
 Full point group                 CS      NOp   2
 Largest Abelian subgroup         CS      NOp   2
 Largest concise Abelian subgroup C1      NOp   1
                         Standard orientation:                         
 ---------------------------------------------------------------------
 Center     Atomic      Atomic             Coordinates (Angstroms)
 Number     Number       Type             X           Y           Z
 ---------------------------------------------------------------------
      1          1           0        5.472595   -0.731689    0.000000
      2          1           0       -5.472595   -3.886575   -0.000000
      3          1           0       -0.000000    4.618264   -0.000000
 ---------------------------------------------------------------------
 Rotational constants (GHZ):          18.0973873           7.2507467           5.1766955
 Standard basis: Aug-CC-pVTZ (5D, 7F)
 There are    54 symmetry adapted cartesian basis functions of A'  symmetry.
 There are    21 symmetry adapted cartesian basis functions of A"  symmetry.
 There are    48 symmetry adapted basis functions of A'  symmetry.
 There are    21 symmetry adapted basis functions of A"  symmetry.
    69 basis functions,    81 primitive gaussians,    75 cartesian basis functions
     2 alpha electrons        1 beta electrons
       nuclear repulsion energy         0.1679253558 Hartrees.
 NAtoms=    3 NActive=    3 NUniq=    3 SFac= 1.00D+00 NAtFMM=   60 NAOKFM=F Big=F
 Integral buffers will be    131072 words long.
 Raffenetti 2 integral format.
 Two-electron integral symmetry is turned on.
 Nuclear repulsion after empirical dispersion term =        0.1679250161 Hartrees.
 One-electron integrals computed using PRISM.
 NBasis=    69 RedAO= T EigKep=  6.50D-02  NBF=    48    21
 NBsUse=    69 1.00D-06 EigRej= -1.00D+00 NBFU=    48    21
 ExpMin= 2.53D-02 ExpMax= 3.39D+01 ExpMxC= 3.39D+01 IAcc=3 IRadAn=         5 AccDes= 0.00D+00
 Harris functional with IExCor= 4639 and IRadAn=       5 diagonalized for initial guess.
 HarFok:  IExCor= 4639 AccDes= 0.00D+00 IRadAn=         5 IDoV= 1 UseB2=F ITyADJ=14
 ICtDFT=  3500011 ScaDFX=  1.000000  1.000000  1.000000  1.000000
 FoFCou: FMM=F IPFlag=           0 FMFlag=      100000 FMFlg1=           0
         NFxFlg=           0 DoJE=T BraDBF=F KetDBF=T FulRan=T
         wScrn=  0.000000 ICntrl=       500 IOpCl=  0 I1Cent=   200000004 NGrid=           0
         NMat0=    1 NMatS0=      1 NMatT0=    0 NMatD0=    1 NMtDS0=    0 NMtDT0=    0
 Petite list used in FoFCou.
 Initial guess orbital symmetries:
 Alpha Orbitals:
       Occupied  (A') (A')
       Virtual   (A') (A') (A') (A') (A') (A") (A') (A') (A") (A')
                 (A") (A') (A') (A') (A') (A') (A') (A") (A") (A')
                 (A') (A') (A') (A') (A") (A') (A") (A") (A") (A')
                 (A') (A') (A") (A') (A') (A") (A') (A") (A') (A')
                 (A') (A') (A') (A') (A') (A') (A') (A') (A") (A")
                 (A') (A") (A') (A") (A") (A") (A') (A') (A') (A")
                 (A') (A") (A') (A') (A") (A') (A')
 Beta  Orbitals:
       Occupied  (A')
       Virtual   (A') (A') (A') (A') (A') (A') (A") (A') (A') (A")
                 (A') (A") (A') (A') (A') (A') (A') (A') (A") (A")
                 (A') (A') (A') (A') (A') (A") (A') (A") (A") (A")
                 (A') (A') (A') (A") (A') (A') (A") (A') (A") (A')
                 (A') (A') (A') (A') (A') (A') (A') (A') (A') (A")
                 (A") (A') (A") (A') (A") (A") (A") (A') (A') (A')
                 (A") (A') (A") (A') (A') (A") (A') (A')
 The electronic state of the initial guess is 2-A'.
 Initial guess <Sx>= 0.0000 <Sy>= 0.0000 <Sz>= 0.5000 <S**2>= 0.7500 S= 0.5000
 Keep R1 and R2 ints in memory in symmetry-blocked form, NReq=8839149.
 Requested convergence on RMS density matrix=1.00D-08 within 128 cycles.
 Requested convergence on MAX density matrix=1.00D-06.
 Requested convergence on             energy=1.00D-06.
 No special actions if energy rises.
 Rare condition: small coef for last iteration:  0.000D+00
 SCF Done:  E(UwB97XD) =  -1.50840925259     A.U. after   15 cycles
            NFock= 15  Conv=0.92D-08     -V/T= 2.0162
 <Sx>= 0.0000 <Sy>= 0.0000 <Sz>= 0.5000 <S**2>= 1.7500 S= 0.9142
 <L.S>= 0.000000000000E+00
 Annihilation of the first spin contaminant:
 S**2 before annihilation     1.7500,   after     0.7500

 **********************************************************************

            Population analysis using the SCF density.

 **********************************************************************

 Orbital symmetries:
 Alpha Orbitals:
       Occupied  (A') (A')
       Virtual   (A') (A') (A') (A") (A') (A') (A") (A') (A') (A')
                 (A') (A") (A') (A') (A') (A") (A') (A') (A') (A")
                 (A') (A') (A") (A") (A') (A") (A') (A") (A') (A')
                 (A') (A') (A") (A') (A') (A") (A') (A") (A') (A')
                 (A') (A') (A') (A') (A") (A') (A') (A") (A') (A")
                 (A') (A") (A') (A") (A') (A') (A") (A') (A') (A")
                 (A') (A') (A') (A") (A') (A") (A')
 Beta  Orbitals:
       Occupied  (A')
       Virtual   (A') (A') (A') (A") (A') (A') (A') (A') (A") (A')
                 (A') (A') (A') (A") (A') (A") (A') (A') (A") (A')
                 (A') (A") (A') (A') (A') (A") (A') (A") (A') (A')
                 (A') (A') (A") (A') (A") (A') (A") (A') (A') (A")
                 (A') (A') (A') (A') (A') (A") (A') (A") (A') (A")
                 (A') (A') (A') (A") (A') (A") (A') (A') (A") (A')
                 (A") (A') (A') (A") (A') (A') (A') (A")
 The electronic state is 2-A'.
 Alpha  occ. eigenvalues --   -0.40625  -0.40625
 Alpha virt. eigenvalues --    0.05283   0.05474   0.13498   0.19395   0.19395
 Alpha virt. eigenvalues --    0.19395   0.19395   0.19396   0.19488   0.41847
 Alpha virt. eigenvalues --    0.41997   0.49699   0.49721   0.50234   0.50738
 Alpha virt. eigenvalues --    0.75910   0.75910   0.75910   0.75910   0.75910
 Alpha virt. eigenvalues --    0.75910   0.75910   0.75910   0.75910   0.75914
 Alpha virt. eigenvalues --    0.89879   0.89879   0.89879   0.89879   0.89879
 Alpha virt. eigenvalues --    0.89904   1.07143   1.20057   1.20132   1.20546
 Alpha virt. eigenvalues --    1.20796   1.20901   1.53086   1.53248   1.57007
 Alpha virt. eigenvalues --    2.34866   2.35022   3.33645   3.64207   3.64208
 Alpha virt. eigenvalues --    3.64208   3.64208   3.64208   3.64208   3.64208
 Alpha virt. eigenvalues --    3.64208   3.64208   3.64210   3.79918   3.79918
 Alpha virt. eigenvalues --    3.79918   3.79918   3.79918   3.79941   4.45567
 Alpha virt. eigenvalues --    4.46191   4.49288   4.51279   4.51583   4.77391
 Alpha virt. eigenvalues --    4.77561   4.81509
  Beta  occ. eigenvalues --   -0.40625
  Beta virt. eigenvalues --    0.05395   0.12227   0.13404   0.19395   0.19396
  Beta virt. eigenvalues --    0.19485   0.29249   0.39483   0.39526   0.39530
  Beta virt. eigenvalues --    0.41954   0.45877   0.48227   0.48265   0.49271
  Beta virt. eigenvalues --    0.75910   0.75910   0.75910   0.75910   0.75914
  Beta virt. eigenvalues --    0.80181   0.89879   0.89879   0.89895   1.00735
  Beta virt. eigenvalues --    1.02183   1.02256   1.03228   1.03297   1.04089
  Beta virt. eigenvalues --    1.15844   1.16433   1.16477   1.16593   1.16859
  Beta virt. eigenvalues --    1.18482   1.19546   1.19650   1.47907   1.48268
  Beta virt. eigenvalues --    1.49723   2.35009   2.96623   3.27178   3.64208
  Beta virt. eigenvalues --    3.64208   3.64208   3.64208   3.64210   3.79918
  Beta virt. eigenvalues --    3.79918   3.79940   4.14028   4.16194   4.17115
  Beta virt. eigenvalues --    4.17296   4.17540   4.38372   4.38495   4.40948
  Beta virt. eigenvalues --    4.41146   4.42319   4.47490   4.48982   4.49515
  Beta virt. eigenvalues --    4.67957   4.70015   4.70292
          Condensed to atoms (all electrons):
               1          2          3
     1  H    1.000014  -0.000000  -0.000014
     2  H   -0.000000   1.000000  -0.000000
     3  H   -0.000014  -0.000000   1.000014
          Atomic-Atomic Spin Densities.
               1          2          3
     1  H    1.000013  -0.000000   0.000000
     2  H   -0.000000   1.000000   0.000000
     3  H    0.000000   0.000000  -1.000013
 Mulliken charges and spin densities:
               1          2
     1  H    0.000000   1.000013
     2  H    0.000000   1.000000
     3  H   -0.000000  -1.000013
 Sum of Mulliken charges =  -0.00000   1.00000
 Mulliken charges and spin densities with hydrogens summed into heavy atoms:
               1          2
 Electronic spatial extent (au):  <R**2>=            355.4247
 Charge=             -0.0000 electrons
 Dipole moment (field-independent basis, Debye):
    X=              0.0000    Y=              0.0000    Z=              0.0000  Tot=              0.0000
 Quadrupole moment (field-independent basis, Debye-Ang):
   XX=             -4.2610   YY=             -4.2610   ZZ=             -4.2605
   XY=              0.0005   XZ=             -0.0000   YZ=              0.0000
 Traceless Quadrupole moment (field-independent basis, Debye-Ang):
   XX=             -0.0002   YY=             -0.0002   ZZ=              0.0003
   XY=              0.0005   XZ=             -0.0000   YZ=              0.0000
 Octapole moment (field-independent basis, Debye-Ang**2):
  XXX=             -0.0041  YYY=             -0.0028  ZZZ=             -0.0000  XYY=              0.0007
  XXY=              0.0019  XXZ=             -0.0000  XZZ=             -0.0000  YZZ=             -0.0000
  YYZ=              0.0000  XYZ=              0.0000
 Hexadecapole moment (field-independent basis, Debye-Ang**3):
 XXXX=           -516.5139 YYYY=           -321.1205 ZZZZ=             -6.0841 XXXY=            -73.5504
 XXXZ=             -0.0000 YYYX=            -73.5554 YYYZ=              0.0000 ZZZX=             -0.0000
 ZZZY=              0.0000 XXYY=           -139.5981 XXZZ=            -87.0951 YYZZ=            -54.5315
 XXYZ=              0.0000 YYXZ=             -0.0000 ZZXY=            -24.5187
 N-N= 1.679250161365D-01 E-N=-3.318775938902D+00  KE= 1.484297825884D+00
 Symmetry A'   KE= 1.484297825884D+00
 Symmetry A"   KE= 3.018409775395D-31
 Symmetry A'   SP= 1.000000000000D+00
 Symmetry A"   SP= 4.255822779543D-32
                          Isotropic Fermi Contact Couplings
        Atom                 a.u.       MegaHertz       Gauss      10(-4) cm-1
     1  H(1)               0.29165    1303.63353     465.16886     434.84534
     2  H(1)               0.29165    1303.63340     465.16881     434.84529
     3  H(1)              -0.29165   -1303.63365    -465.16890    -434.84538
 --------------------------------------------------------
       Center         ----  Spin Dipole Couplings  ----
                      3XX-RR        3YY-RR        3ZZ-RR
 --------------------------------------------------------
     1   Atom        0.000001     -0.000231      0.000230
     2   Atom        0.000195     -0.000238      0.000043
     3   Atom        0.000159      0.000315     -0.000474
 --------------------------------------------------------
                        XY            XZ            YZ
 --------------------------------------------------------
     1   Atom        0.000576     -0.000000      0.000000
     2   Atom       -0.000116      0.000000      0.000000
     3   Atom       -0.000300      0.000000     -0.000000
 --------------------------------------------------------


 ---------------------------------------------------------------------------------
              Anisotropic Spin Dipole Couplings in Principal Axis System
 ---------------------------------------------------------------------------------

       Atom             a.u.   MegaHertz   Gauss  10(-4) cm-1        Axes

              Baa    -0.0007    -0.375    -0.134    -0.125 -0.6334  0.7738 -0.0000
     1 H(1)   Bbb     0.0002     0.123     0.044     0.041 -0.0000  0.0000  1.0000
              Bcc     0.0005     0.252     0.090     0.084  0.7738  0.6334  0.0000
 
              Baa    -0.0003    -0.142    -0.051    -0.047  0.2427  0.9701 -0.0000
     2 H(1)   Bbb     0.0000     0.023     0.008     0.008 -0.0000  0.0000  1.0000
              Bcc     0.0002     0.119     0.043     0.040  0.9701 -0.2427  0.0000
 
              Baa    -0.0005    -0.253    -0.090    -0.084 -0.0000  0.0000  1.0000
     3 H(1)   Bbb    -0.0001    -0.039    -0.014    -0.013  0.7908  0.6121  0.0000
              Bcc     0.0005     0.292     0.104     0.097 -0.6121  0.7908 -0.0000
 

 ---------------------------------------------------------------------------------

 1\1\GINC-MSI\SP\UwB97XD\Aug-CC-pVTZ\H3(2)\MARK\18-May-2024\0\\# wb97xd
 /aug-cc-pvtz\\Title0\\0,2\H,0,8.03,7.79,4.36\H,0,-2.17,7.15,9.39\H,0,6
 .75,2.39,9.63\\Version=ES64L-G16RevA.03\State=2-A'\HF=-1.5084093\S2=1.
 75\S2-1=0.\S2A=0.75\RMSD=9.170e-09\Dipole=0.0000003,-0.0000002,0.\Quad
 rupole=0.0002027,-0.0001149,-0.0000879,-0.0000678,0.0000838,0.0003559\
 PG=CS [SG(H3)]\\@


 FRICTION IS A DRAG,
 AND ENTROPY AIN'T WHAT IT USED TO BE.
 Job cpu time:       0 days  0 hours  0 minutes  3.7 seconds.
 Elapsed time:       0 days  0 hours  0 minutes  3.6 seconds.
 File lengths (MBytes):  RWF=     10 Int=      0 D2E=      0 Chk=      1 Scr=      1
 Normal termination of Gaussian 16 at Sat May 18 08:00:22 2024.
