 Entering Gaussian System, Link 0=g16
 Input=inputFiles/Test2.com
 Output=inputFiles/Test2.log
 Initial command:
 /home/mark/gaussian/g16/l1.exe "/home/mark/gaussian/scratch/Gau-1624.inp" -scrdir="/home/mark/gaussian/scratch/"
 Entering Link 1 = /home/mark/gaussian/g16/l1.exe PID=      1626.
  
 Copyright (c) 1988,1990,1992,1993,1995,1998,2003,2009,2016,
            Gaussian, Inc.  All Rights Reserved.
  
 This is part of the Gaussian(R) 16 program.  It is based on
 the Gaussian(R) 09 system (copyright 2009, Gaussian, Inc.),
 the Gaussian(R) 03 system (copyright 2003, Gaussian, Inc.),
 the Gaussian(R) 98 system (copyright 1998, Gaussian, Inc.),
 the Gaussian(R) 94 system (copyright 1995, Gaussian, Inc.),
 the Gaussian 92(TM) system (copyright 1992, Gaussian, Inc.),
 the Gaussian 90(TM) system (copyright 1990, Gaussian, Inc.),
 the Gaussian 88(TM) system (copyright 1988, Gaussian, Inc.),
 the Gaussian 86(TM) system (copyright 1986, Carnegie Mellon
 University), and the Gaussian 82(TM) system (copyright 1983,
 Carnegie Mellon University). Gaussian is a federally registered
 trademark of Gaussian, Inc.
  
 This software contains proprietary and confidential information,
 including trade secrets, belonging to Gaussian, Inc.
  
 This software is provided under written license and may be
 used, copied, transmitted, or stored only in accord with that
 written license.
  
 The following legend is applicable only to US Government
 contracts under FAR:
  
                    RESTRICTED RIGHTS LEGEND
  
 Use, reproduction and disclosure by the US Government is
 subject to restrictions as set forth in subparagraphs (a)
 and (c) of the Commercial Computer Software - Restricted
 Rights clause in FAR 52.227-19.
  
 Gaussian, Inc.
 340 Quinnipiac St., Bldg. 40, Wallingford CT 06492
  
  
 ---------------------------------------------------------------
 Warning -- This program may not be used in any manner that
 competes with the business of Gaussian, Inc. or will provide
 assistance to any competitor of Gaussian, Inc.  The licensee
 of this program is prohibited from giving any competitor of
 Gaussian, Inc. access to this program.  By using this program,
 the user acknowledges that Gaussian, Inc. is engaged in the
 business of creating and licensing software in the field of
 computational chemistry and represents and warrants to the
 licensee that it is not a competitor of Gaussian, Inc. and that
 it will not use this program in any manner prohibited above.
 ---------------------------------------------------------------
  

 Cite this work as:
 Gaussian 16, Revision A.03,
 M. J. Frisch, G. W. Trucks, H. B. Schlegel, G. E. Scuseria, 
 M. A. Robb, J. R. Cheeseman, G. Scalmani, V. Barone, 
 G. A. Petersson, H. Nakatsuji, X. Li, M. Caricato, A. V. Marenich, 
 J. Bloino, B. G. Janesko, R. Gomperts, B. Mennucci, H. P. Hratchian, 
 J. V. Ortiz, A. F. Izmaylov, J. L. Sonnenberg, D. Williams-Young, 
 F. Ding, F. Lipparini, F. Egidi, J. Goings, B. Peng, A. Petrone, 
 T. Henderson, D. Ranasinghe, V. G. Zakrzewski, J. Gao, N. Rega, 
 G. Zheng, W. Liang, M. Hada, M. Ehara, K. Toyota, R. Fukuda, 
 J. Hasegawa, M. Ishida, T. Nakajima, Y. Honda, O. Kitao, H. Nakai, 
 T. Vreven, K. Throssell, J. A. Montgomery, Jr., J. E. Peralta, 
 F. Ogliaro, M. J. Bearpark, J. J. Heyd, E. N. Brothers, K. N. Kudin, 
 V. N. Staroverov, T. A. Keith, R. Kobayashi, J. Normand, 
 K. Raghavachari, A. P. Rendell, J. C. Burant, S. S. Iyengar, 
 J. Tomasi, M. Cossi, J. M. Millam, M. Klene, C. Adamo, R. Cammi, 
 J. W. Ochterski, R. L. Martin, K. Morokuma, O. Farkas, 
 J. B. Foresman, and D. J. Fox, Gaussian, Inc., Wallingford CT, 2016.
 
 ******************************************
 Gaussian 16:  ES64L-G16RevA.03 25-Dec-2016
                18-May-2024 
 ******************************************
 %NProcShared=1
 Will use up to    1 processors via shared memory.
 %chk=inputFiles/test2.chk
 --------------------
 # wb97xd/aug-cc-pvtz
 --------------------
 1/38=1,172=1/1;
 2/12=2,17=6,18=5,40=1/2;
 3/5=16,6=1,7=10,11=2,25=1,30=1,74=-58/1,2,3;
 4//1;
 5/5=2,38=5/2;
 6/7=2,8=2,9=2,10=2,28=1/1;
 99/5=1,9=1/99;
 ------
 Title2
 ------
 Symbolic Z-matrix:
 Charge =  0 Multiplicity = 2
 H                     6.69      6.49      3.63 
 H                    -1.81      5.96      7.82 
 H                     5.62      1.99      8.03 
 
                          Input orientation:                          
 ---------------------------------------------------------------------
 Center     Atomic      Atomic             Coordinates (Angstroms)
 Number     Number       Type             X           Y           Z
 ---------------------------------------------------------------------
      1          1           0        6.690000    6.490000    3.630000
      2          1           0       -1.810000    5.960000    7.820000
      3          1           0        5.620000    1.990000    8.030000
 ---------------------------------------------------------------------
                    Distance matrix (angstroms):
                    1          2          3
     1  H    0.000000
     2  H    9.491417   0.000000
     3  H    6.383956   8.426737   0.000000
 Stoichiometry    H3(2)
 Framework group  CS[SG(H3)]
 Deg. of freedom     3
 Full point group                 CS      NOp   2
 Largest Abelian subgroup         CS      NOp   2
 Largest concise Abelian subgroup C1      NOp   1
                         Standard orientation:                         
 ---------------------------------------------------------------------
 Center     Atomic      Atomic             Coordinates (Angstroms)
 Number     Number       Type             X           Y           Z
 ---------------------------------------------------------------------
      1          1           0        4.561452   -0.615746    0.000000
      2          1           0       -4.561452   -3.234833    0.000000
      3          1           0       -0.000000    3.850579   -0.000000
 ---------------------------------------------------------------------
 Rotational constants (GHZ):          26.0095187          10.4460549           7.4528209
 Standard basis: Aug-CC-pVTZ (5D, 7F)
 There are    54 symmetry adapted cartesian basis functions of A'  symmetry.
 There are    21 symmetry adapted cartesian basis functions of A"  symmetry.
 There are    48 symmetry adapted basis functions of A'  symmetry.
 There are    21 symmetry adapted basis functions of A"  symmetry.
    69 basis functions,    81 primitive gaussians,    75 cartesian basis functions
     2 alpha electrons        1 beta electrons
       nuclear repulsion energy         0.2014423702 Hartrees.
 NAtoms=    3 NActive=    3 NUniq=    3 SFac= 1.00D+00 NAtFMM=   60 NAOKFM=F Big=F
 Integral buffers will be    131072 words long.
 Raffenetti 2 integral format.
 Two-electron integral symmetry is turned on.
 Nuclear repulsion after empirical dispersion term =        0.2014413606 Hartrees.
 One-electron integrals computed using PRISM.
 NBasis=    69 RedAO= T EigKep=  6.32D-02  NBF=    48    21
 NBsUse=    69 1.00D-06 EigRej= -1.00D+00 NBFU=    48    21
 ExpMin= 2.53D-02 ExpMax= 3.39D+01 ExpMxC= 3.39D+01 IAcc=3 IRadAn=         5 AccDes= 0.00D+00
 Harris functional with IExCor= 4639 and IRadAn=       5 diagonalized for initial guess.
 HarFok:  IExCor= 4639 AccDes= 0.00D+00 IRadAn=         5 IDoV= 1 UseB2=F ITyADJ=14
 ICtDFT=  3500011 ScaDFX=  1.000000  1.000000  1.000000  1.000000
 FoFCou: FMM=F IPFlag=           0 FMFlag=      100000 FMFlg1=           0
         NFxFlg=           0 DoJE=T BraDBF=F KetDBF=T FulRan=T
         wScrn=  0.000000 ICntrl=       500 IOpCl=  0 I1Cent=   200000004 NGrid=           0
         NMat0=    1 NMatS0=      1 NMatT0=    0 NMatD0=    1 NMtDS0=    0 NMtDT0=    0
 Petite list used in FoFCou.
 Initial guess orbital symmetries:
 Alpha Orbitals:
       Occupied  (A') (A')
       Virtual   (A') (A') (A') (A') (A') (A") (A') (A") (A') (A')
                 (A") (A') (A') (A') (A') (A') (A') (A") (A') (A")
                 (A') (A') (A') (A") (A") (A') (A") (A") (A') (A')
                 (A') (A') (A") (A') (A") (A') (A') (A") (A') (A')
                 (A') (A') (A') (A') (A') (A") (A") (A') (A') (A')
                 (A") (A") (A") (A') (A") (A') (A') (A') (A') (A")
                 (A') (A") (A') (A') (A") (A') (A')
 Beta  Orbitals:
       Occupied  (A')
       Virtual   (A') (A') (A') (A') (A') (A') (A") (A') (A") (A')
                 (A') (A") (A') (A') (A') (A') (A') (A') (A") (A')
                 (A") (A') (A') (A') (A") (A") (A') (A") (A") (A')
                 (A') (A') (A') (A") (A') (A") (A') (A') (A") (A')
                 (A') (A') (A') (A') (A') (A') (A") (A") (A') (A')
                 (A') (A") (A") (A") (A') (A") (A') (A') (A') (A')
                 (A") (A') (A") (A') (A') (A") (A') (A')
 The electronic state of the initial guess is 2-A'.
 Initial guess <Sx>= 0.0000 <Sy>= 0.0000 <Sz>= 0.5000 <S**2>= 0.7500 S= 0.5000
 Keep R1 and R2 ints in memory in symmetry-blocked form, NReq=8839149.
 Requested convergence on RMS density matrix=1.00D-08 within 128 cycles.
 Requested convergence on MAX density matrix=1.00D-06.
 Requested convergence on             energy=1.00D-06.
 No special actions if energy rises.
 Rare condition: small coef for last iteration:  0.000D+00
 SCF Done:  E(UwB97XD) =  -1.50840673090     A.U. after   16 cycles
            NFock= 16  Conv=0.80D-09     -V/T= 2.0162
 <Sx>= 0.0000 <Sy>= 0.0000 <Sz>= 0.5000 <S**2>= 1.7500 S= 0.9142
 <L.S>= 0.000000000000E+00
 Annihilation of the first spin contaminant:
 S**2 before annihilation     1.7500,   after     0.7500

 **********************************************************************

            Population analysis using the SCF density.

 **********************************************************************

 Orbital symmetries:
 Alpha Orbitals:
       Occupied  (A') (A')
       Virtual   (A') (A') (A') (A") (A') (A") (A') (A') (A') (A')
                 (A') (A') (A") (A') (A') (A') (A") (A') (A') (A")
                 (A") (A') (A') (A") (A') (A") (A') (A") (A') (A')
                 (A') (A') (A') (A") (A') (A') (A") (A') (A") (A')
                 (A') (A') (A') (A') (A") (A') (A") (A') (A") (A')
                 (A') (A") (A') (A") (A') (A') (A") (A') (A') (A')
                 (A") (A') (A') (A") (A') (A") (A')
 Beta  Orbitals:
       Occupied  (A')
       Virtual   (A') (A') (A') (A") (A') (A') (A') (A') (A') (A")
                 (A') (A') (A') (A") (A') (A") (A') (A") (A') (A')
                 (A") (A') (A') (A') (A') (A') (A") (A') (A") (A')
                 (A') (A") (A') (A") (A') (A') (A") (A') (A") (A')
                 (A') (A') (A') (A') (A") (A') (A") (A') (A') (A")
                 (A') (A') (A") (A') (A') (A") (A') (A") (A') (A')
                 (A") (A') (A') (A") (A') (A") (A') (A')
 The electronic state is 2-A'.
 Alpha  occ. eigenvalues --   -0.40625  -0.40625
 Alpha virt. eigenvalues --    0.05155   0.05855   0.13319   0.19395   0.19395
 Alpha virt. eigenvalues --    0.19396   0.19396   0.19397   0.19923   0.41731
 Alpha virt. eigenvalues --    0.42258   0.49991   0.50486   0.50763   0.52226
 Alpha virt. eigenvalues --    0.75909   0.75910   0.75910   0.75910   0.75910
 Alpha virt. eigenvalues --    0.75910   0.75910   0.75910   0.75910   0.75946
 Alpha virt. eigenvalues --    0.89879   0.89879   0.89879   0.89880   0.89881
 Alpha virt. eigenvalues --    0.90083   1.09886   1.20544   1.20836   1.21724
 Alpha virt. eigenvalues --    1.21893   1.22014   1.57608   1.58068   1.58857
 Alpha virt. eigenvalues --    2.34811   2.35358   3.36569   3.64207   3.64207
 Alpha virt. eigenvalues --    3.64207   3.64208   3.64208   3.64208   3.64208
 Alpha virt. eigenvalues --    3.64208   3.64208   3.64227   3.79918   3.79918
 Alpha virt. eigenvalues --    3.79918   3.79918   3.79919   3.80076   4.50059
 Alpha virt. eigenvalues --    4.50620   4.52631   4.52660   4.52820   4.78101
 Alpha virt. eigenvalues --    4.80798   4.83324
  Beta  occ. eigenvalues --   -0.40625
  Beta virt. eigenvalues --    0.05625   0.13045   0.13561   0.19396   0.19417
  Beta virt. eigenvalues --    0.19890   0.39842   0.42068   0.46355   0.46431
  Beta virt. eigenvalues --    0.47531   0.48038   0.48662   0.48758   0.50047
  Beta virt. eigenvalues --    0.75910   0.75910   0.75910   0.75911   0.75939
  Beta virt. eigenvalues --    0.89879   0.89880   0.90004   0.97119   0.98526
  Beta virt. eigenvalues --    1.10954   1.11087   1.11922   1.14425   1.14530
  Beta virt. eigenvalues --    1.17386   1.17871   1.17943   1.18070   1.19971
  Beta virt. eigenvalues --    1.43882   1.43975   1.44466   1.50597   1.50625
  Beta virt. eigenvalues --    1.55867   2.35276   3.23342   3.26235   3.64208
  Beta virt. eigenvalues --    3.64208   3.64208   3.64209   3.64225   3.79918
  Beta virt. eigenvalues --    3.79923   3.80067   4.31979   4.32308   4.34119
  Beta virt. eigenvalues --    4.34214   4.35498   4.36549   4.36858   4.42461
  Beta virt. eigenvalues --    4.44947   4.45048   4.55115   4.55262   4.66525
  Beta virt. eigenvalues --    4.70621   4.70790   4.74986
          Condensed to atoms (all electrons):
               1          2          3
     1  H    1.000071  -0.000000  -0.000070
     2  H   -0.000000   1.000004  -0.000004
     3  H   -0.000070  -0.000004   1.000075
          Atomic-Atomic Spin Densities.
               1          2          3
     1  H    1.000067  -0.000001   0.000000
     2  H   -0.000001   1.000004   0.000000
     3  H    0.000000   0.000000  -1.000071
 Mulliken charges and spin densities:
               1          2
     1  H    0.000000   1.000067
     2  H    0.000000   1.000004
     3  H   -0.000000  -1.000070
 Sum of Mulliken charges =  -0.00000   1.00000
 Mulliken charges and spin densities with hydrogens summed into heavy atoms:
               1          2
 Electronic spatial extent (au):  <R**2>=            249.7807
 Charge=             -0.0000 electrons
 Dipole moment (field-independent basis, Debye):
    X=             -0.0000    Y=             -0.0000    Z=              0.0000  Tot=              0.0000
 Quadrupole moment (field-independent basis, Debye-Ang):
   XX=             -4.2624   YY=             -4.2624   ZZ=             -4.2602
   XY=              0.0018   XZ=             -0.0000   YZ=              0.0000
 Traceless Quadrupole moment (field-independent basis, Debye-Ang):
   XX=             -0.0007   YY=             -0.0007   ZZ=              0.0015
   XY=              0.0018   XZ=             -0.0000   YZ=              0.0000
 Octapole moment (field-independent basis, Debye-Ang**2):
  XXX=             -0.0110  YYY=             -0.0081  ZZZ=             -0.0000  XYY=              0.0032
  XXY=              0.0071  XXZ=             -0.0000  XZZ=              0.0006  YZZ=              0.0005
  YYZ=              0.0000  XYZ=              0.0000
 Hexadecapole moment (field-independent basis, Debye-Ang**3):
 XXXX=           -360.7591 YYYY=           -224.8743 ZZZZ=             -6.0824 XXXY=            -50.8762
 XXXZ=             -0.0000 YYYX=            -50.8891 YYYZ=              0.0000 ZZZX=             -0.0000
 ZZZY=              0.0000 XXYY=            -97.5859 XXZZ=            -61.1268 YYZZ=            -38.4851
 XXYZ=              0.0000 YYXZ=             -0.0000 ZZXY=            -16.9644
 N-N= 2.014413606314D-01 E-N=-3.385845227920D+00  KE= 1.484333148738D+00
 Symmetry A'   KE= 1.484333148738D+00
 Symmetry A"   KE= 3.344793417816D-31
 Symmetry A'   SP= 1.000000000000D+00
 Symmetry A"   SP= 4.715908965974D-32
                          Isotropic Fermi Contact Couplings
        Atom                 a.u.       MegaHertz       Gauss      10(-4) cm-1
     1  H(1)               0.29165    1303.66111     465.17870     434.85454
     2  H(1)               0.29165    1303.63174     465.16822     434.84474
     3  H(1)              -0.29165   -1303.66206    -465.17904    -434.85486
 --------------------------------------------------------
       Center         ----  Spin Dipole Couplings  ----
                      3XX-RR        3YY-RR        3ZZ-RR
 --------------------------------------------------------
     1   Atom        0.000004     -0.000401      0.000397
     2   Atom        0.000337     -0.000411      0.000074
     3   Atom        0.000273      0.000545     -0.000818
 --------------------------------------------------------
                        XY            XZ            YZ
 --------------------------------------------------------
     1   Atom        0.000993     -0.000000      0.000000
     2   Atom       -0.000200      0.000000      0.000000
     3   Atom       -0.000517      0.000000     -0.000000
 --------------------------------------------------------


 ---------------------------------------------------------------------------------
              Anisotropic Spin Dipole Couplings in Principal Axis System
 ---------------------------------------------------------------------------------

       Atom             a.u.   MegaHertz   Gauss  10(-4) cm-1        Axes

              Baa    -0.0012    -0.646    -0.231    -0.216 -0.6326  0.7745 -0.0000
     1 H(1)   Bbb     0.0004     0.212     0.076     0.071 -0.0000  0.0000  1.0000
              Bcc     0.0008     0.435     0.155     0.145  0.7745  0.6326 -0.0000
 
              Baa    -0.0005    -0.246    -0.088    -0.082  0.2433  0.9700 -0.0000
     2 H(1)   Bbb     0.0001     0.040     0.014     0.013 -0.0000  0.0000  1.0000
              Bcc     0.0004     0.207     0.074     0.069  0.9700 -0.2433  0.0000
 
              Baa    -0.0008    -0.436    -0.156    -0.146 -0.0000  0.0000  1.0000
     3 H(1)   Bbb    -0.0001    -0.067    -0.024    -0.022  0.7919  0.6107 -0.0000
              Bcc     0.0009     0.503     0.180     0.168 -0.6107  0.7919 -0.0000
 

 ---------------------------------------------------------------------------------

 1\1\GINC-MSI\SP\UwB97XD\Aug-CC-pVTZ\H3(2)\MARK\18-May-2024\0\\# wb97xd
 /aug-cc-pvtz\\Title2\\0,2\H,0,6.69,6.49,3.63\H,0,-1.81,5.96,7.82\H,0,5
 .62,1.99,8.03\\Version=ES64L-G16RevA.03\State=2-A'\HF=-1.5084067\S2=1.
 75\S2-1=0.\S2A=0.75\RMSD=8.005e-10\Dipole=-0.0000008,0.0000005,-0.0000
 001\Quadrupole=0.0007311,-0.0004267,-0.0003044,-0.0002192,0.0003471,0.
 0014175\PG=CS [SG(H3)]\\@


 EVERY WORD THAT YOU WRITE IS A BLOW THAT SMITES THE DEVIL.
     -- ST. BERNARD OF CLAIRVAUX
 Job cpu time:       0 days  0 hours  0 minutes  4.0 seconds.
 Elapsed time:       0 days  0 hours  0 minutes  4.0 seconds.
 File lengths (MBytes):  RWF=     10 Int=      0 D2E=      0 Chk=      1 Scr=      1
 Normal termination of Gaussian 16 at Sat May 18 08:00:30 2024.
