 Entering Gaussian System, Link 0=g16
 Input=inputFiles/Test7.com
 Output=inputFiles/Test7.log
 Initial command:
 /home/mark/gaussian/g16/l1.exe "/home/mark/gaussian/scratch/Gau-2446.inp" -scrdir="/home/mark/gaussian/scratch/"
 Entering Link 1 = /home/mark/gaussian/g16/l1.exe PID=      2448.
  
 Copyright (c) 1988,1990,1992,1993,1995,1998,2003,2009,2016,
            Gaussian, Inc.  All Rights Reserved.
  
 This is part of the Gaussian(R) 16 program.  It is based on
 the Gaussian(R) 09 system (copyright 2009, Gaussian, Inc.),
 the Gaussian(R) 03 system (copyright 2003, Gaussian, Inc.),
 the Gaussian(R) 98 system (copyright 1998, Gaussian, Inc.),
 the Gaussian(R) 94 system (copyright 1995, Gaussian, Inc.),
 the Gaussian 92(TM) system (copyright 1992, Gaussian, Inc.),
 the Gaussian 90(TM) system (copyright 1990, Gaussian, Inc.),
 the Gaussian 88(TM) system (copyright 1988, Gaussian, Inc.),
 the Gaussian 86(TM) system (copyright 1986, Carnegie Mellon
 University), and the Gaussian 82(TM) system (copyright 1983,
 Carnegie Mellon University). Gaussian is a federally registered
 trademark of Gaussian, Inc.
  
 This software contains proprietary and confidential information,
 including trade secrets, belonging to Gaussian, Inc.
  
 This software is provided under written license and may be
 used, copied, transmitted, or stored only in accord with that
 written license.
  
 The following legend is applicable only to US Government
 contracts under FAR:
  
                    RESTRICTED RIGHTS LEGEND
  
 Use, reproduction and disclosure by the US Government is
 subject to restrictions as set forth in subparagraphs (a)
 and (c) of the Commercial Computer Software - Restricted
 Rights clause in FAR 52.227-19.
  
 Gaussian, Inc.
 340 Quinnipiac St., Bldg. 40, Wallingford CT 06492
  
  
 ---------------------------------------------------------------
 Warning -- This program may not be used in any manner that
 competes with the business of Gaussian, Inc. or will provide
 assistance to any competitor of Gaussian, Inc.  The licensee
 of this program is prohibited from giving any competitor of
 Gaussian, Inc. access to this program.  By using this program,
 the user acknowledges that Gaussian, Inc. is engaged in the
 business of creating and licensing software in the field of
 computational chemistry and represents and warrants to the
 licensee that it is not a competitor of Gaussian, Inc. and that
 it will not use this program in any manner prohibited above.
 ---------------------------------------------------------------
  

 Cite this work as:
 Gaussian 16, Revision A.03,
 M. J. Frisch, G. W. Trucks, H. B. Schlegel, G. E. Scuseria, 
 M. A. Robb, J. R. Cheeseman, G. Scalmani, V. Barone, 
 G. A. Petersson, H. Nakatsuji, X. Li, M. Caricato, A. V. Marenich, 
 J. Bloino, B. G. Janesko, R. Gomperts, B. Mennucci, H. P. Hratchian, 
 J. V. Ortiz, A. F. Izmaylov, J. L. Sonnenberg, D. Williams-Young, 
 F. Ding, F. Lipparini, F. Egidi, J. Goings, B. Peng, A. Petrone, 
 T. Henderson, D. Ranasinghe, V. G. Zakrzewski, J. Gao, N. Rega, 
 G. Zheng, W. Liang, M. Hada, M. Ehara, K. Toyota, R. Fukuda, 
 J. Hasegawa, M. Ishida, T. Nakajima, Y. Honda, O. Kitao, H. Nakai, 
 T. Vreven, K. Throssell, J. A. Montgomery, Jr., J. E. Peralta, 
 F. Ogliaro, M. J. Bearpark, J. J. Heyd, E. N. Brothers, K. N. Kudin, 
 V. N. Staroverov, T. A. Keith, R. Kobayashi, J. Normand, 
 K. Raghavachari, A. P. Rendell, J. C. Burant, S. S. Iyengar, 
 J. Tomasi, M. Cossi, J. M. Millam, M. Klene, C. Adamo, R. Cammi, 
 J. W. Ochterski, R. L. Martin, K. Morokuma, O. Farkas, 
 J. B. Foresman, and D. J. Fox, Gaussian, Inc., Wallingford CT, 2016.
 
 ******************************************
 Gaussian 16:  ES64L-G16RevA.03 25-Dec-2016
                18-May-2024 
 ******************************************
 %NProcShared=1
 Will use up to    1 processors via shared memory.
 %chk=inputFiles/test7.chk
 --------------------
 # wb97xd/aug-cc-pvtz
 --------------------
 1/38=1,172=1/1;
 2/12=2,17=6,18=5,40=1/2;
 3/5=16,6=1,7=10,11=2,25=1,30=1,74=-58/1,2,3;
 4//1;
 5/5=2,38=5/2;
 6/7=2,8=2,9=2,10=2,28=1/1;
 99/5=1,9=1/99;
 ------
 Title7
 ------
 Symbolic Z-matrix:
 Charge =  0 Multiplicity = 1
 Si                    2.31     -0.61      4.39 
 Si                    1.52      4.23      2.19 
 Si                   -0.24      2.14      4.51 
 Si                    2.17      2.32      3.86 
 Si                    0.68      3.11      3.86 
 Si                   -1.38      2.71      3.97 
 
                          Input orientation:                          
 ---------------------------------------------------------------------
 Center     Atomic      Atomic             Coordinates (Angstroms)
 Number     Number       Type             X           Y           Z
 ---------------------------------------------------------------------
      1         14           0        2.310000   -0.610000    4.390000
      2         14           0        1.520000    4.230000    2.190000
      3         14           0       -0.240000    2.140000    4.510000
      4         14           0        2.170000    2.320000    3.860000
      5         14           0        0.680000    3.110000    3.860000
      6         14           0       -1.380000    2.710000    3.970000
 ---------------------------------------------------------------------
                    Distance matrix (angstroms):
                    1          2          3          4          5
     1  Si   0.000000
     2  Si   5.374914   0.000000
     3  Si   3.752253   3.584425   0.000000
     4  Si   2.980839   2.619065   2.502599   0.000000
     5  Si   4.095876   2.179197   1.486540   1.686476   0.000000
     6  Si   4.981456   3.726768   1.384233   3.573052   2.101357
                    6
     6  Si   0.000000
 Stoichiometry    Si6
 Framework group  C1[X(Si6)]
 Deg. of freedom    12
 Full point group                 C1      NOp   1
 Largest Abelian subgroup         C1      NOp   1
 Largest concise Abelian subgroup C1      NOp   1
                         Standard orientation:                         
 ---------------------------------------------------------------------
 Center     Atomic      Atomic             Coordinates (Angstroms)
 Number     Number       Type             X           Y           Z
 ---------------------------------------------------------------------
      1         14           0        3.311822    0.006872   -0.316731
      2         14           0       -1.720131    1.894708   -0.389016
      3         14           0       -0.170326   -1.275723    0.239138
      4         14           0        0.634340    1.086664    0.425252
      5         14           0       -0.729323    0.097683    0.344402
      6         14           0       -1.326383   -1.810204   -0.303045
 ---------------------------------------------------------------------
 Rotational constants (GHZ):           1.7394816           1.0411757           0.6859553
 Standard basis: Aug-CC-pVTZ (5D, 7F)
 There are   354 symmetry adapted cartesian basis functions of A   symmetry.
 There are   300 symmetry adapted basis functions of A   symmetry.
   300 basis functions,   690 primitive gaussians,   354 cartesian basis functions
    42 alpha electrons       42 beta electrons
       nuclear repulsion energy       597.8717994816 Hartrees.
 NAtoms=    6 NActive=    6 NUniq=    6 SFac= 1.00D+00 NAtFMM=   60 NAOKFM=F Big=F
 Integral buffers will be    131072 words long.
 Raffenetti 2 integral format.
 Two-electron integral symmetry is turned on.
 Nuclear repulsion after empirical dispersion term =      597.8691435435 Hartrees.
 One-electron integrals computed using PRISM.
 NBasis=   300 RedAO= T EigKep=  6.55D-06  NBF=   300
 NBsUse=   300 1.00D-06 EigRej= -1.00D+00 NBFU=   300
 ExpMin= 2.37D-02 ExpMax= 2.55D+05 ExpMxC= 2.46D+03 IAcc=3 IRadAn=         5 AccDes= 0.00D+00
 Harris functional with IExCor= 4639 and IRadAn=       5 diagonalized for initial guess.
 HarFok:  IExCor= 4639 AccDes= 0.00D+00 IRadAn=         5 IDoV= 1 UseB2=F ITyADJ=14
 ICtDFT=  3500011 ScaDFX=  1.000000  1.000000  1.000000  1.000000
 FoFCou: FMM=F IPFlag=           0 FMFlag=      100000 FMFlg1=           0
         NFxFlg=           0 DoJE=T BraDBF=F KetDBF=T FulRan=T
         wScrn=  0.000000 ICntrl=       500 IOpCl=  0 I1Cent=   200000004 NGrid=           0
         NMat0=    1 NMatS0=      1 NMatT0=    0 NMatD0=    1 NMtDS0=    0 NMtDT0=    0
 Petite list used in FoFCou.
 Requested convergence on RMS density matrix=1.00D-08 within 128 cycles.
 Requested convergence on MAX density matrix=1.00D-06.
 Requested convergence on             energy=1.00D-06.
 No special actions if energy rises.
 Restarting incremental Fock formation.
 Restarting incremental Fock formation.
 Restarting incremental Fock formation.
 SCF Done:  E(RwB97XD) =  -1735.55697593     A.U. after   68 cycles
            NFock= 68  Conv=0.42D-08     -V/T= 1.9989

 **********************************************************************

            Population analysis using the SCF density.

 **********************************************************************

 Orbital symmetries:
       Occupied  (A) (A) (A) (A) (A) (A) (A) (A) (A) (A) (A) (A)
                 (A) (A) (A) (A) (A) (A) (A) (A) (A) (A) (A) (A)
                 (A) (A) (A) (A) (A) (A) (A) (A) (A) (A) (A) (A)
                 (A) (A) (A) (A) (A) (A)
       Virtual   (A) (A) (A) (A) (A) (A) (A) (A) (A) (A) (A) (A)
                 (A) (A) (A) (A) (A) (A) (A) (A) (A) (A) (A) (A)
                 (A) (A) (A) (A) (A) (A) (A) (A) (A) (A) (A) (A)
                 (A) (A) (A) (A) (A) (A) (A) (A) (A) (A) (A) (A)
                 (A) (A) (A) (A) (A) (A) (A) (A) (A) (A) (A) (A)
                 (A) (A) (A) (A) (A) (A) (A) (A) (A) (A) (A) (A)
                 (A) (A) (A) (A) (A) (A) (A) (A) (A) (A) (A) (A)
                 (A) (A) (A) (A) (A) (A) (A) (A) (A) (A) (A) (A)
                 (A) (A) (A) (A) (A) (A) (A) (A) (A) (A) (A) (A)
                 (A) (A) (A) (A) (A) (A) (A) (A) (A) (A) (A) (A)
                 (A) (A) (A) (A) (A) (A) (A) (A) (A) (A) (A) (A)
                 (A) (A) (A) (A) (A) (A) (A) (A) (A) (A) (A) (A)
                 (A) (A) (A) (A) (A) (A) (A) (A) (A) (A) (A) (A)
                 (A) (A) (A) (A) (A) (A) (A) (A) (A) (A) (A) (A)
                 (A) (A) (A) (A) (A) (A) (A) (A) (A) (A) (A) (A)
                 (A) (A) (A) (A) (A) (A) (A) (A) (A) (A) (A) (A)
                 (A) (A) (A) (A) (A) (A) (A) (A) (A) (A) (A) (A)
                 (A) (A) (A) (A) (A) (A) (A) (A) (A) (A) (A) (A)
                 (A) (A) (A) (A) (A) (A) (A) (A) (A) (A) (A) (A)
                 (A) (A) (A) (A) (A) (A) (A) (A) (A) (A) (A) (A)
                 (A) (A) (A) (A) (A) (A) (A) (A) (A) (A) (A) (A)
                 (A) (A) (A) (A) (A) (A)
 The electronic state is 1-A.
 Alpha  occ. eigenvalues --  -66.33498 -66.32920 -66.30779 -66.30433 -66.29390
 Alpha  occ. eigenvalues --  -66.27175  -5.50215  -5.45261  -5.43905  -5.43761
 Alpha  occ. eigenvalues --   -5.42821  -5.41658  -3.87391  -3.84571  -3.81879
 Alpha  occ. eigenvalues --   -3.78836  -3.78760  -3.78587  -3.78503  -3.78345
 Alpha  occ. eigenvalues --   -3.78206  -3.77852  -3.77747  -3.77628  -3.77403
 Alpha  occ. eigenvalues --   -3.77111  -3.76387  -3.76030  -3.75762  -3.75646
 Alpha  occ. eigenvalues --   -0.85723  -0.70274  -0.58906  -0.51924  -0.48942
 Alpha  occ. eigenvalues --   -0.48013  -0.43219  -0.36419  -0.33084  -0.31543
 Alpha  occ. eigenvalues --   -0.28946  -0.22022
 Alpha virt. eigenvalues --   -0.07384  -0.06397  -0.04047  -0.02975   0.00499
 Alpha virt. eigenvalues --    0.02407   0.03416   0.03760   0.04155   0.04318
 Alpha virt. eigenvalues --    0.04468   0.05337   0.05968   0.06279   0.06603
 Alpha virt. eigenvalues --    0.06886   0.07754   0.07970   0.08393   0.08608
 Alpha virt. eigenvalues --    0.09038   0.09181   0.09447   0.09518   0.09913
 Alpha virt. eigenvalues --    0.10474   0.11253   0.12355   0.13157   0.13341
 Alpha virt. eigenvalues --    0.14357   0.15079   0.15251   0.15694   0.16354
 Alpha virt. eigenvalues --    0.16462   0.16561   0.17140   0.17204   0.17996
 Alpha virt. eigenvalues --    0.18946   0.19484   0.19837   0.20790   0.21092
 Alpha virt. eigenvalues --    0.21399   0.21837   0.22276   0.23128   0.23271
 Alpha virt. eigenvalues --    0.23744   0.23953   0.24461   0.24740   0.25076
 Alpha virt. eigenvalues --    0.25828   0.26885   0.27327   0.27881   0.28920
 Alpha virt. eigenvalues --    0.29314   0.29767   0.30683   0.30722   0.31073
 Alpha virt. eigenvalues --    0.31617   0.32821   0.33228   0.34025   0.35651
 Alpha virt. eigenvalues --    0.36093   0.37121   0.38093   0.38630   0.39371
 Alpha virt. eigenvalues --    0.40324   0.40834   0.41048   0.41751   0.42053
 Alpha virt. eigenvalues --    0.42325   0.42780   0.44352   0.44774   0.45133
 Alpha virt. eigenvalues --    0.45860   0.46108   0.46162   0.46723   0.47628
 Alpha virt. eigenvalues --    0.48085   0.48666   0.48965   0.49647   0.50354
 Alpha virt. eigenvalues --    0.50850   0.51199   0.52163   0.52650   0.53284
 Alpha virt. eigenvalues --    0.53439   0.53763   0.54730   0.54930   0.56394
 Alpha virt. eigenvalues --    0.57389   0.57442   0.58552   0.58688   0.59898
 Alpha virt. eigenvalues --    0.60367   0.60836   0.61380   0.62148   0.63289
 Alpha virt. eigenvalues --    0.63559   0.64170   0.65173   0.65629   0.66450
 Alpha virt. eigenvalues --    0.67006   0.67382   0.68274   0.68777   0.69077
 Alpha virt. eigenvalues --    0.70459   0.70844   0.71121   0.72348   0.73731
 Alpha virt. eigenvalues --    0.74570   0.75073   0.76008   0.76739   0.78216
 Alpha virt. eigenvalues --    0.79560   0.80230   0.81320   0.82512   0.82933
 Alpha virt. eigenvalues --    0.84266   0.86355   0.87414   0.89071   0.89796
 Alpha virt. eigenvalues --    0.92466   0.94563   0.95462   0.95582   0.99285
 Alpha virt. eigenvalues --    1.00124   1.00730   1.02502   1.04429   1.06234
 Alpha virt. eigenvalues --    1.08582   1.10746   1.11785   1.13890   1.16807
 Alpha virt. eigenvalues --    1.17461   1.18894   1.19568   1.19838   1.21082
 Alpha virt. eigenvalues --    1.22801   1.24054   1.24949   1.25289   1.26248
 Alpha virt. eigenvalues --    1.27515   1.28459   1.29052   1.29954   1.32040
 Alpha virt. eigenvalues --    1.32080   1.32686   1.32875   1.34434   1.34616
 Alpha virt. eigenvalues --    1.35189   1.35772   1.36073   1.36198   1.37888
 Alpha virt. eigenvalues --    1.38075   1.38324   1.39059   1.39654   1.40361
 Alpha virt. eigenvalues --    1.40689   1.41256   1.41642   1.43052   1.44186
 Alpha virt. eigenvalues --    1.44550   1.45262   1.46307   1.47149   1.48127
 Alpha virt. eigenvalues --    1.49912   1.50828   1.52824   1.54260   1.55039
 Alpha virt. eigenvalues --    1.56579   1.57900   1.59322   1.60677   1.62234
 Alpha virt. eigenvalues --    1.63910   1.65837   1.70852   1.72985   1.75832
 Alpha virt. eigenvalues --    1.76801   1.77950   1.79708   1.81951   1.84183
 Alpha virt. eigenvalues --    1.86023   1.89038   1.91964   1.93037   1.97332
 Alpha virt. eigenvalues --    2.03423   2.11583   2.16199   2.18583   2.22609
 Alpha virt. eigenvalues --    2.28627   2.34015   2.37516   2.43600   2.54312
 Alpha virt. eigenvalues --    2.60850   2.62313   2.74224   2.81109   2.82624
 Alpha virt. eigenvalues --    2.95608   2.97110   3.09950   3.15184   3.19980
 Alpha virt. eigenvalues --    3.20954   3.29457   3.31966   3.34188   3.38941
 Alpha virt. eigenvalues --    3.42988   3.64389   3.91162   4.94843   7.09988
 Alpha virt. eigenvalues --    7.31182   8.82746  10.75010
          Condensed to atoms (all electrons):
               1          2          3          4          5          6
     1  Si  14.019967  -0.015811   0.002840   0.125604   0.037525  -0.016917
     2  Si  -0.015811  14.043225  -0.058843   0.255124   0.043592  -0.056704
     3  Si   0.002840  -0.058843  15.246986   0.484740  -1.851932  -0.071399
     4  Si   0.125604   0.255124   0.484740  14.742163  -1.048904  -0.002477
     5  Si   0.037525   0.043592  -1.851932  -1.048904  15.789972  -0.693617
     6  Si  -0.016917  -0.056704  -0.071399  -0.002477  -0.693617  15.892040
 Mulliken charges:
               1
     1  Si  -0.153209
     2  Si  -0.210584
     3  Si   0.247607
     4  Si  -0.556251
     5  Si   1.723364
     6  Si  -1.050926
 Sum of Mulliken charges =  -0.00000
 Mulliken charges with hydrogens summed into heavy atoms:
               1
     1  Si  -0.153209
     2  Si  -0.210584
     3  Si   0.247607
     4  Si  -0.556251
     5  Si   1.723364
     6  Si  -1.050926
 Electronic spatial extent (au):  <R**2>=           1527.2449
 Charge=             -0.0000 electrons
 Dipole moment (field-independent basis, Debye):
    X=             -2.0492    Y=             -0.2822    Z=             -0.1329  Tot=              2.0728
 Quadrupole moment (field-independent basis, Debye-Ang):
   XX=            -81.0935   YY=            -75.8925   ZZ=            -79.2861
   XY=             -2.3673   XZ=             -2.0629   YZ=              0.7958
 Traceless Quadrupole moment (field-independent basis, Debye-Ang):
   XX=             -2.3362   YY=              2.8648   ZZ=             -0.5287
   XY=             -2.3673   XZ=             -2.0629   YZ=              0.7958
 Octapole moment (field-independent basis, Debye-Ang**2):
  XXX=            -22.4740  YYY=            -13.1324  ZZZ=              4.3723  XYY=              2.6901
  XXY=             14.6825  XXZ=            -11.6346  XZZ=            -24.0622  YZZ=             -4.5289
  YYZ=              1.3432  XYZ=              8.8198
 Hexadecapole moment (field-independent basis, Debye-Ang**3):
 XXXX=          -1517.1224 YYYY=           -904.2221 ZZZZ=           -213.9753 XXXY=             19.7942
 XXXZ=            -63.9885 YYYX=              0.0886 YYYZ=              8.3015 ZZZX=              9.5013
 ZZZY=             -0.7402 XXYY=           -399.6186 XXZZ=           -331.3994 YYZZ=           -180.7116
 XXYZ=             16.3224 YYXZ=             -7.6229 ZZXY=             -6.9635
 N-N= 5.978691435435D+02 E-N=-5.332700154704D+03  KE= 1.737453323635D+03
 1\1\GINC-MSI\SP\RwB97XD\Aug-CC-pVTZ\Si6\MARK\19-May-2024\0\\# wb97xd/a
 ug-cc-pvtz\\Title7\\0,1\Si,0,2.31,-0.61,4.39\Si,0,1.52,4.23,2.19\Si,0,
 -0.24,2.14,4.51\Si,0,2.17,2.32,3.86\Si,0,0.68,3.11,3.86\Si,0,-1.38,2.7
 1,3.97\\Version=ES64L-G16RevA.03\State=1-A\HF=-1735.5569759\RMSD=4.209
 e-09\Dipole=-0.4847821,0.6216358,-0.2087578\Quadrupole=-0.4156784,1.16
 57583,-0.7500799,2.5251857,-1.4859693,0.1488722\PG=C01 [X(Si6)]\\@


 BUT 'GLORY' DOESN'T MEAN 'A NICE KNOCK DOWN ARGUMENT', ALICE OBJECTED.
 WHEN I USE A WORD, HUMPTY DUMPTY SAID, IN A RATHER SCORNFUL TONE,
 IT MEANS JUST WHAT I CHOOSE IT TO MEAN....
 NEITHER MORE NOR LESS....
 THE QUESTION IS, SAID ALICE,
 WHETHER YOU CAN MAKE WORDS MEAN SO MANY DIFFERENT THINGS...
 THE QUESTION IS, SAID HUMPTY DUMPTY,
 WHICH IS TO BE MASTER....
 THAT IS ALL.....

 ALICE THROUGH THE LOOKING GLASS
 Job cpu time:       0 days  2 hours  1 minutes 19.0 seconds.
 Elapsed time:       0 days  2 hours  1 minutes 25.9 seconds.
 File lengths (MBytes):  RWF=     51 Int=      0 D2E=      0 Chk=      6 Scr=      1
 Normal termination of Gaussian 16 at Sun May 19 00:18:15 2024.
