 Entering Gaussian System, Link 0=g16
 Input=inputFiles/Test4.com
 Output=inputFiles/Test4.log
 Initial command:
 /home/mark/gaussian/g16/l1.exe "/home/mark/gaussian/scratch/Gau-2396.inp" -scrdir="/home/mark/gaussian/scratch/"
 Entering Link 1 = /home/mark/gaussian/g16/l1.exe PID=      2398.
  
 Copyright (c) 1988,1990,1992,1993,1995,1998,2003,2009,2016,
            Gaussian, Inc.  All Rights Reserved.
  
 This is part of the Gaussian(R) 16 program.  It is based on
 the Gaussian(R) 09 system (copyright 2009, Gaussian, Inc.),
 the Gaussian(R) 03 system (copyright 2003, Gaussian, Inc.),
 the Gaussian(R) 98 system (copyright 1998, Gaussian, Inc.),
 the Gaussian(R) 94 system (copyright 1995, Gaussian, Inc.),
 the Gaussian 92(TM) system (copyright 1992, Gaussian, Inc.),
 the Gaussian 90(TM) system (copyright 1990, Gaussian, Inc.),
 the Gaussian 88(TM) system (copyright 1988, Gaussian, Inc.),
 the Gaussian 86(TM) system (copyright 1986, Carnegie Mellon
 University), and the Gaussian 82(TM) system (copyright 1983,
 Carnegie Mellon University). Gaussian is a federally registered
 trademark of Gaussian, Inc.
  
 This software contains proprietary and confidential information,
 including trade secrets, belonging to Gaussian, Inc.
  
 This software is provided under written license and may be
 used, copied, transmitted, or stored only in accord with that
 written license.
  
 The following legend is applicable only to US Government
 contracts under FAR:
  
                    RESTRICTED RIGHTS LEGEND
  
 Use, reproduction and disclosure by the US Government is
 subject to restrictions as set forth in subparagraphs (a)
 and (c) of the Commercial Computer Software - Restricted
 Rights clause in FAR 52.227-19.
  
 Gaussian, Inc.
 340 Quinnipiac St., Bldg. 40, Wallingford CT 06492
  
  
 ---------------------------------------------------------------
 Warning -- This program may not be used in any manner that
 competes with the business of Gaussian, Inc. or will provide
 assistance to any competitor of Gaussian, Inc.  The licensee
 of this program is prohibited from giving any competitor of
 Gaussian, Inc. access to this program.  By using this program,
 the user acknowledges that Gaussian, Inc. is engaged in the
 business of creating and licensing software in the field of
 computational chemistry and represents and warrants to the
 licensee that it is not a competitor of Gaussian, Inc. and that
 it will not use this program in any manner prohibited above.
 ---------------------------------------------------------------
  

 Cite this work as:
 Gaussian 16, Revision A.03,
 M. J. Frisch, G. W. Trucks, H. B. Schlegel, G. E. Scuseria, 
 M. A. Robb, J. R. Cheeseman, G. Scalmani, V. Barone, 
 G. A. Petersson, H. Nakatsuji, X. Li, M. Caricato, A. V. Marenich, 
 J. Bloino, B. G. Janesko, R. Gomperts, B. Mennucci, H. P. Hratchian, 
 J. V. Ortiz, A. F. Izmaylov, J. L. Sonnenberg, D. Williams-Young, 
 F. Ding, F. Lipparini, F. Egidi, J. Goings, B. Peng, A. Petrone, 
 T. Henderson, D. Ranasinghe, V. G. Zakrzewski, J. Gao, N. Rega, 
 G. Zheng, W. Liang, M. Hada, M. Ehara, K. Toyota, R. Fukuda, 
 J. Hasegawa, M. Ishida, T. Nakajima, Y. Honda, O. Kitao, H. Nakai, 
 T. Vreven, K. Throssell, J. A. Montgomery, Jr., J. E. Peralta, 
 F. Ogliaro, M. J. Bearpark, J. J. Heyd, E. N. Brothers, K. N. Kudin, 
 V. N. Staroverov, T. A. Keith, R. Kobayashi, J. Normand, 
 K. Raghavachari, A. P. Rendell, J. C. Burant, S. S. Iyengar, 
 J. Tomasi, M. Cossi, J. M. Millam, M. Klene, C. Adamo, R. Cammi, 
 J. W. Ochterski, R. L. Martin, K. Morokuma, O. Farkas, 
 J. B. Foresman, and D. J. Fox, Gaussian, Inc., Wallingford CT, 2016.
 
 ******************************************
 Gaussian 16:  ES64L-G16RevA.03 25-Dec-2016
                18-May-2024 
 ******************************************
 %NProcShared=1
 Will use up to    1 processors via shared memory.
 %chk=inputFiles/test4.chk
 --------------------
 # wb97xd/aug-cc-pvtz
 --------------------
 1/38=1,172=1/1;
 2/12=2,17=6,18=5,40=1/2;
 3/5=16,6=1,7=10,11=2,25=1,30=1,74=-58/1,2,3;
 4//1;
 5/5=2,38=5/2;
 6/7=2,8=2,9=2,10=2,28=1/1;
 99/5=1,9=1/99;
 ------
 Title4
 ------
 Symbolic Z-matrix:
 Charge =  0 Multiplicity = 1
 Si                    4.82      4.7       4.33 
 Si                   -0.75      6.77      4.19 
 C                    -6.94      0.07      3.98 
 C                     3.85      2.89      6.39 
 
                          Input orientation:                          
 ---------------------------------------------------------------------
 Center     Atomic      Atomic             Coordinates (Angstroms)
 Number     Number       Type             X           Y           Z
 ---------------------------------------------------------------------
      1         14           0        4.820000    4.700000    4.330000
      2         14           0       -0.750000    6.770000    4.190000
      3          6           0       -6.940000    0.070000    3.980000
      4          6           0        3.850000    2.890000    6.390000
 ---------------------------------------------------------------------
                    Distance matrix (angstroms):
                    1          2          3          4
     1  Si   0.000000
     2  Si   5.943854   0.000000
     3  C   12.643457   9.124155   0.000000
     4  C    2.908711   6.407371  11.409847   0.000000
 Stoichiometry    C2Si2
 Framework group  C1[X(C2Si2)]
 Deg. of freedom     6
 Full point group                 C1      NOp   1
 Largest Abelian subgroup         C1      NOp   1
 Largest concise Abelian subgroup C1      NOp   1
                         Standard orientation:                         
 ---------------------------------------------------------------------
 Center     Atomic      Atomic             Coordinates (Angstroms)
 Number     Number       Type             X           Y           Z
 ---------------------------------------------------------------------
      1         14           0        3.764005   -0.669034   -0.614748
      2         14           0       -1.072534    2.681017    0.230499
      3          6           0       -8.788422   -2.156463   -0.329924
      4          6           0        2.508322   -2.538163    1.226506
 ---------------------------------------------------------------------
 Rotational constants (GHZ):           1.3364684           0.3456041           0.2843014
 Standard basis: Aug-CC-pVTZ (5D, 7F)
 There are   228 symmetry adapted cartesian basis functions of A   symmetry.
 There are   192 symmetry adapted basis functions of A   symmetry.
   192 basis functions,   374 primitive gaussians,   228 cartesian basis functions
    20 alpha electrons       20 beta electrons
       nuclear repulsion energy        49.7263406217 Hartrees.
 NAtoms=    4 NActive=    4 NUniq=    4 SFac= 1.00D+00 NAtFMM=   60 NAOKFM=F Big=F
 Integral buffers will be    131072 words long.
 Raffenetti 2 integral format.
 Two-electron integral symmetry is turned on.
 Nuclear repulsion after empirical dispersion term =       49.7260934654 Hartrees.
 One-electron integrals computed using PRISM.
 NBasis=   192 RedAO= T EigKep=  2.09D-03  NBF=   192
 NBsUse=   192 1.00D-06 EigRej= -1.00D+00 NBFU=   192
 ExpMin= 2.37D-02 ExpMax= 2.55D+05 ExpMxC= 2.46D+03 IAcc=3 IRadAn=         5 AccDes= 0.00D+00
 Harris functional with IExCor= 4639 and IRadAn=       5 diagonalized for initial guess.
 HarFok:  IExCor= 4639 AccDes= 0.00D+00 IRadAn=         5 IDoV= 1 UseB2=F ITyADJ=14
 ICtDFT=  3500011 ScaDFX=  1.000000  1.000000  1.000000  1.000000
 FoFCou: FMM=F IPFlag=           0 FMFlag=      100000 FMFlg1=           0
         NFxFlg=           0 DoJE=T BraDBF=F KetDBF=T FulRan=T
         wScrn=  0.000000 ICntrl=       500 IOpCl=  0 I1Cent=   200000004 NGrid=           0
         NMat0=    1 NMatS0=      1 NMatT0=    0 NMatD0=    1 NMtDS0=    0 NMtDT0=    0
 Petite list used in FoFCou.
 Requested convergence on RMS density matrix=1.00D-08 within 128 cycles.
 Requested convergence on MAX density matrix=1.00D-06.
 Requested convergence on             energy=1.00D-06.
 No special actions if energy rises.
 Rare condition: small coef for last iteration:  0.000D+00
 EnCoef did   100 forward-backward iterations
 EnCoef did   100 forward-backward iterations
 EnCoef did     2 forward-backward iterations
 EnCoef did     2 forward-backward iterations
 Restarting incremental Fock formation.
 Restarting incremental Fock formation.
 Restarting incremental Fock formation.
 Restarting incremental Fock formation.
 Restarting incremental Fock formation.
 Restarting incremental Fock formation.
 >>>>>>>>>> Convergence criterion not met.
 SCF Done:  E(RwB97XD) =  -654.277607955     A.U. after  129 cycles
            NFock=128  Conv=0.33D-06     -V/T= 2.0039
 Convergence failure -- run terminated.
 Error termination via Lnk1e in /home/mark/gaussian/g16/l502.exe at Sat May 18 13:29:55 2024.
 Job cpu time:       0 days  0 hours 13 minutes 54.9 seconds.
 Elapsed time:       0 days  0 hours 13 minutes 56.8 seconds.
 File lengths (MBytes):  RWF=     22 Int=      0 D2E=      0 Chk=      2 Scr=      1
