 Entering Gaussian System, Link 0=g16
 Input=inputFiles/Test4.com
 Output=inputFiles/Test4.log
 Initial command:
 /home/mark/gaussian/g16/l1.exe "/home/mark/gaussian/scratch/Gau-1660.inp" -scrdir="/home/mark/gaussian/scratch/"
 Entering Link 1 = /home/mark/gaussian/g16/l1.exe PID=      1662.
  
 Copyright (c) 1988,1990,1992,1993,1995,1998,2003,2009,2016,
            Gaussian, Inc.  All Rights Reserved.
  
 This is part of the Gaussian(R) 16 program.  It is based on
 the Gaussian(R) 09 system (copyright 2009, Gaussian, Inc.),
 the Gaussian(R) 03 system (copyright 2003, Gaussian, Inc.),
 the Gaussian(R) 98 system (copyright 1998, Gaussian, Inc.),
 the Gaussian(R) 94 system (copyright 1995, Gaussian, Inc.),
 the Gaussian 92(TM) system (copyright 1992, Gaussian, Inc.),
 the Gaussian 90(TM) system (copyright 1990, Gaussian, Inc.),
 the Gaussian 88(TM) system (copyright 1988, Gaussian, Inc.),
 the Gaussian 86(TM) system (copyright 1986, Carnegie Mellon
 University), and the Gaussian 82(TM) system (copyright 1983,
 Carnegie Mellon University). Gaussian is a federally registered
 trademark of Gaussian, Inc.
  
 This software contains proprietary and confidential information,
 including trade secrets, belonging to Gaussian, Inc.
  
 This software is provided under written license and may be
 used, copied, transmitted, or stored only in accord with that
 written license.
  
 The following legend is applicable only to US Government
 contracts under FAR:
  
                    RESTRICTED RIGHTS LEGEND
  
 Use, reproduction and disclosure by the US Government is
 subject to restrictions as set forth in subparagraphs (a)
 and (c) of the Commercial Computer Software - Restricted
 Rights clause in FAR 52.227-19.
  
 Gaussian, Inc.
 340 Quinnipiac St., Bldg. 40, Wallingford CT 06492
  
  
 ---------------------------------------------------------------
 Warning -- This program may not be used in any manner that
 competes with the business of Gaussian, Inc. or will provide
 assistance to any competitor of Gaussian, Inc.  The licensee
 of this program is prohibited from giving any competitor of
 Gaussian, Inc. access to this program.  By using this program,
 the user acknowledges that Gaussian, Inc. is engaged in the
 business of creating and licensing software in the field of
 computational chemistry and represents and warrants to the
 licensee that it is not a competitor of Gaussian, Inc. and that
 it will not use this program in any manner prohibited above.
 ---------------------------------------------------------------
  

 Cite this work as:
 Gaussian 16, Revision A.03,
 M. J. Frisch, G. W. Trucks, H. B. Schlegel, G. E. Scuseria, 
 M. A. Robb, J. R. Cheeseman, G. Scalmani, V. Barone, 
 G. A. Petersson, H. Nakatsuji, X. Li, M. Caricato, A. V. Marenich, 
 J. Bloino, B. G. Janesko, R. Gomperts, B. Mennucci, H. P. Hratchian, 
 J. V. Ortiz, A. F. Izmaylov, J. L. Sonnenberg, D. Williams-Young, 
 F. Ding, F. Lipparini, F. Egidi, J. Goings, B. Peng, A. Petrone, 
 T. Henderson, D. Ranasinghe, V. G. Zakrzewski, J. Gao, N. Rega, 
 G. Zheng, W. Liang, M. Hada, M. Ehara, K. Toyota, R. Fukuda, 
 J. Hasegawa, M. Ishida, T. Nakajima, Y. Honda, O. Kitao, H. Nakai, 
 T. Vreven, K. Throssell, J. A. Montgomery, Jr., J. E. Peralta, 
 F. Ogliaro, M. J. Bearpark, J. J. Heyd, E. N. Brothers, K. N. Kudin, 
 V. N. Staroverov, T. A. Keith, R. Kobayashi, J. Normand, 
 K. Raghavachari, A. P. Rendell, J. C. Burant, S. S. Iyengar, 
 J. Tomasi, M. Cossi, J. M. Millam, M. Klene, C. Adamo, R. Cammi, 
 J. W. Ochterski, R. L. Martin, K. Morokuma, O. Farkas, 
 J. B. Foresman, and D. J. Fox, Gaussian, Inc., Wallingford CT, 2016.
 
 ******************************************
 Gaussian 16:  ES64L-G16RevA.03 25-Dec-2016
                18-May-2024 
 ******************************************
 %NProcShared=1
 Will use up to    1 processors via shared memory.
 %chk=inputFiles/test4.chk
 --------------------
 # wb97xd/aug-cc-pvtz
 --------------------
 1/38=1,172=1/1;
 2/12=2,17=6,18=5,40=1/2;
 3/5=16,6=1,7=10,11=2,25=1,30=1,74=-58/1,2,3;
 4//1;
 5/5=2,38=5/2;
 6/7=2,8=2,9=2,10=2,28=1/1;
 99/5=1,9=1/99;
 ------
 Title4
 ------
 Symbolic Z-matrix:
 Charge =  0 Multiplicity = 1
 Si                   -2.99      3.93      3.4 
 Si                   -5.        2.25      2.44 
 Si                   -5.13      2.6       1.71 
 
                          Input orientation:                          
 ---------------------------------------------------------------------
 Center     Atomic      Atomic             Coordinates (Angstroms)
 Number     Number       Type             X           Y           Z
 ---------------------------------------------------------------------
      1         14           0       -2.990000    3.930000    3.400000
      2         14           0       -5.000000    2.250000    2.440000
      3         14           0       -5.130000    2.600000    1.710000
 ---------------------------------------------------------------------
                    Distance matrix (angstroms):
                    1          2          3
     1  Si   0.000000
     2  Si   2.790000   0.000000
     3  Si   3.033908   0.819939   0.000000
 Stoichiometry    Si3
 Framework group  CS[SG(Si3)]
 Deg. of freedom     3
 Full point group                 CS      NOp   2
 Largest Abelian subgroup         CS      NOp   2
 Largest concise Abelian subgroup C1      NOp   1
                         Standard orientation:                         
 ---------------------------------------------------------------------
 Center     Atomic      Atomic             Coordinates (Angstroms)
 Number     Number       Type             X           Y           Z
 ---------------------------------------------------------------------
      1         14           0        0.812874   -1.743503   -0.000000
      2         14           0       -0.000000    0.925455    0.000000
      3         14           0       -0.812874    0.818048    0.000000
 ---------------------------------------------------------------------
 Rotational constants (GHZ):          59.4017102           3.2356193           3.0684788
 Standard basis: Aug-CC-pVTZ (5D, 7F)
 There are   120 symmetry adapted cartesian basis functions of A'  symmetry.
 There are    57 symmetry adapted cartesian basis functions of A"  symmetry.
 There are    99 symmetry adapted basis functions of A'  symmetry.
 There are    51 symmetry adapted basis functions of A"  symmetry.
   150 basis functions,   345 primitive gaussians,   177 cartesian basis functions
    21 alpha electrons       21 beta electrons
       nuclear repulsion energy       197.8573482281 Hartrees.
 NAtoms=    3 NActive=    3 NUniq=    3 SFac= 1.00D+00 NAtFMM=   60 NAOKFM=F Big=F
 Integral buffers will be    131072 words long.
 Raffenetti 2 integral format.
 Two-electron integral symmetry is turned on.
 Nuclear repulsion after empirical dispersion term =      197.8570812327 Hartrees.
 One-electron integrals computed using PRISM.
 NBasis=   150 RedAO= T EigKep=  1.57D-06  NBF=    99    51
 NBsUse=   150 1.00D-06 EigRej= -1.00D+00 NBFU=    99    51
 ExpMin= 2.37D-02 ExpMax= 2.55D+05 ExpMxC= 2.46D+03 IAcc=3 IRadAn=         5 AccDes= 0.00D+00
 Harris functional with IExCor= 4639 and IRadAn=       5 diagonalized for initial guess.
 HarFok:  IExCor= 4639 AccDes= 0.00D+00 IRadAn=         5 IDoV= 1 UseB2=F ITyADJ=14
 ICtDFT=  3500011 ScaDFX=  1.000000  1.000000  1.000000  1.000000
 FoFCou: FMM=F IPFlag=           0 FMFlag=      100000 FMFlg1=           0
         NFxFlg=           0 DoJE=T BraDBF=F KetDBF=T FulRan=T
         wScrn=  0.000000 ICntrl=       500 IOpCl=  0 I1Cent=   200000004 NGrid=           0
         NMat0=    1 NMatS0=      1 NMatT0=    0 NMatD0=    1 NMtDS0=    0 NMtDT0=    0
 Petite list used in FoFCou.
 Initial guess orbital symmetries:
       Occupied  (A') (A') (A') (A') (A') (A') (A') (A') (A") (A')
                 (A") (A') (A') (A") (A') (A') (A') (A") (A') (A')
                 (A')
       Virtual   (A") (A') (A') (A') (A') (A") (A") (A') (A') (A')
                 (A') (A") (A') (A") (A") (A') (A') (A') (A') (A")
                 (A') (A") (A') (A') (A") (A') (A') (A') (A") (A')
                 (A") (A") (A') (A') (A") (A') (A') (A') (A") (A')
                 (A') (A") (A') (A") (A") (A') (A') (A') (A") (A')
                 (A") (A') (A') (A") (A') (A') (A") (A") (A') (A')
                 (A") (A') (A") (A') (A') (A") (A') (A') (A') (A")
                 (A') (A") (A") (A') (A') (A') (A') (A") (A') (A")
                 (A') (A") (A') (A") (A') (A') (A') (A") (A") (A')
                 (A") (A') (A") (A') (A') (A') (A") (A') (A') (A")
                 (A") (A') (A') (A") (A") (A') (A") (A') (A') (A')
                 (A') (A") (A') (A') (A") (A') (A') (A") (A') (A')
                 (A') (A") (A') (A') (A") (A') (A') (A') (A')
 The electronic state of the initial guess is 1-A'.
 Requested convergence on RMS density matrix=1.00D-08 within 128 cycles.
 Requested convergence on MAX density matrix=1.00D-06.
 Requested convergence on             energy=1.00D-06.
 No special actions if energy rises.
 SCF Done:  E(RwB97XD) =  -863.941680905     A.U. after   18 cycles
            NFock= 18  Conv=0.27D-08     -V/T= 1.9848

 **********************************************************************

            Population analysis using the SCF density.

 **********************************************************************

 Orbital symmetries:
       Occupied  (A') (A') (A') (A') (A') (A') (A') (A') (A") (A')
                 (A") (A") (A') (A') (A') (A') (A') (A") (A') (A')
                 (A')
       Virtual   (A") (A') (A') (A') (A') (A") (A') (A") (A') (A')
                 (A") (A') (A') (A") (A') (A") (A') (A') (A") (A')
                 (A') (A') (A") (A') (A") (A') (A') (A') (A") (A')
                 (A") (A') (A") (A') (A") (A') (A') (A') (A") (A')
                 (A') (A") (A') (A") (A') (A") (A') (A") (A') (A')
                 (A") (A') (A') (A") (A') (A') (A") (A") (A') (A')
                 (A") (A') (A') (A") (A') (A") (A') (A') (A') (A")
                 (A') (A") (A') (A") (A') (A') (A') (A") (A') (A")
                 (A') (A') (A") (A') (A") (A") (A') (A') (A") (A')
                 (A") (A') (A") (A') (A') (A") (A') (A') (A') (A")
                 (A') (A") (A') (A") (A') (A") (A") (A') (A') (A')
                 (A') (A") (A') (A') (A") (A') (A') (A') (A") (A')
                 (A') (A") (A') (A') (A") (A') (A') (A') (A')
 The electronic state is 1-A'.
 Alpha  occ. eigenvalues --  -66.63266 -66.63078 -66.33341  -6.59417  -5.60101
 Alpha  occ. eigenvalues --   -5.43352  -4.55962  -4.37980  -4.37898  -4.07473
 Alpha  occ. eigenvalues --   -4.07426  -3.78254  -3.78130  -3.76724  -3.74646
 Alpha  occ. eigenvalues --   -0.73625  -0.53382  -0.45530  -0.43423  -0.37345
 Alpha  occ. eigenvalues --   -0.22581
 Alpha virt. eigenvalues --   -0.05060  -0.02278   0.00325   0.04594   0.04747
 Alpha virt. eigenvalues --    0.05882   0.06206   0.06287   0.07043   0.07857
 Alpha virt. eigenvalues --    0.08022   0.08231   0.08758   0.10891   0.11226
 Alpha virt. eigenvalues --    0.11811   0.13850   0.15157   0.16067   0.16141
 Alpha virt. eigenvalues --    0.16503   0.19373   0.19704   0.20578   0.21149
 Alpha virt. eigenvalues --    0.21346   0.22630   0.23483   0.23983   0.25433
 Alpha virt. eigenvalues --    0.25504   0.25579   0.27858   0.29064   0.30867
 Alpha virt. eigenvalues --    0.35277   0.35446   0.37578   0.38981   0.39933
 Alpha virt. eigenvalues --    0.40249   0.40362   0.42293   0.42540   0.44638
 Alpha virt. eigenvalues --    0.45397   0.46291   0.47229   0.47262   0.48852
 Alpha virt. eigenvalues --    0.49337   0.50934   0.52301   0.53623   0.53817
 Alpha virt. eigenvalues --    0.54352   0.55637   0.57264   0.57535   0.58561
 Alpha virt. eigenvalues --    0.59177   0.59530   0.63728   0.63822   0.66701
 Alpha virt. eigenvalues --    0.67764   0.69593   0.72024   0.73393   0.74610
 Alpha virt. eigenvalues --    0.80129   0.82442   0.82687   0.84484   0.85123
 Alpha virt. eigenvalues --    0.86453   0.92594   0.96131   1.08004   1.09967
 Alpha virt. eigenvalues --    1.15308   1.15986   1.16687   1.17843   1.18245
 Alpha virt. eigenvalues --    1.18944   1.19270   1.23237   1.26692   1.30615
 Alpha virt. eigenvalues --    1.33704   1.33768   1.34258   1.34804   1.37436
 Alpha virt. eigenvalues --    1.39165   1.40061   1.41167   1.44686   1.45692
 Alpha virt. eigenvalues --    1.46225   1.46940   1.52155   1.54648   1.56553
 Alpha virt. eigenvalues --    1.56918   1.62343   1.63410   1.66828   1.75419
 Alpha virt. eigenvalues --    1.88929   2.00486   2.03617   2.08366   2.27970
 Alpha virt. eigenvalues --    2.40431   2.44597   2.60238   2.63022   2.71438
 Alpha virt. eigenvalues --    2.80160   2.92418   2.98826   3.01990   3.44257
 Alpha virt. eigenvalues --    3.46897   3.64596   4.02509  11.81877
          Condensed to atoms (all electrons):
               1          2          3
     1  Si  14.424773  -0.403550   0.453731
     2  Si  -0.403550  82.833143 -70.178083
     3  Si   0.453731 -70.178083  84.997888
 Mulliken charges:
               1
     1  Si  -0.474954
     2  Si   1.748490
     3  Si  -1.273536
 Sum of Mulliken charges =  -0.00000
 Mulliken charges with hydrogens summed into heavy atoms:
               1
     1  Si  -0.474954
     2  Si   1.748490
     3  Si  -1.273536
 Electronic spatial extent (au):  <R**2>=            378.5486
 Charge=             -0.0000 electrons
 Dipole moment (field-independent basis, Debye):
    X=             -0.2396    Y=              0.8433    Z=              0.0000  Tot=              0.8766
 Quadrupole moment (field-independent basis, Debye-Ang):
   XX=            -41.3875   YY=            -37.3602   ZZ=            -34.5426
   XY=             -2.4422   XZ=              0.0000   YZ=             -0.0000
 Traceless Quadrupole moment (field-independent basis, Debye-Ang):
   XX=             -3.6241   YY=              0.4033   ZZ=              3.2208
   XY=             -2.4422   XZ=              0.0000   YZ=             -0.0000
 Octapole moment (field-independent basis, Debye-Ang**2):
  XXX=            -18.9355  YYY=             16.9141  ZZZ=              0.0000  XYY=              9.5025
  XXY=              8.0991  XXZ=              0.0000  XZZ=             -0.2626  YZZ=              0.7855
  YYZ=              0.0000  XYZ=              0.0000
 Hexadecapole moment (field-independent basis, Debye-Ang**3):
 XXXX=           -215.9484 YYYY=           -428.7476 ZZZZ=            -52.4719 XXXY=             90.7791
 XXXZ=              0.0000 YYYX=             45.5622 YYYZ=             -0.0000 ZZZX=              0.0000
 ZZZY=             -0.0000 XXYY=            -97.5053 XXZZ=            -39.3360 YYZZ=            -72.7207
 XXYZ=             -0.0000 YYXZ=              0.0000 ZZXY=             22.1206
 N-N= 1.978570812327D+02 E-N=-2.455932878092D+03  KE= 8.772453577192D+02
 Symmetry A'   KE= 7.995230027511D+02
 Symmetry A"   KE= 7.772235496808D+01
 1\1\GINC-MSI\SP\RwB97XD\Aug-CC-pVTZ\Si3\MARK\18-May-2024\0\\# wb97xd/a
 ug-cc-pvtz\\Title4\\0,1\Si,0,-2.99,3.93,3.4\Si,0,-5.,2.25,2.44\Si,0,-5
 .13,2.6,1.71\\Version=ES64L-G16RevA.03\State=1-A'\HF=-863.9416809\RMSD
 =2.678e-09\Dipole=-0.2481631,-0.2110942,-0.113175\Quadrupole=1.7308329
 ,-0.1795999,-1.551233,-0.6927925,-0.1160815,2.5745322\PG=CS [SG(Si3)]\
 \@


 I HAVE NOT FAILED, I HAVE ONLY DISCOVERED 10,000
 WAYS THAT DIDN'T WORK.  -- THOMAS A. EDISON
 Job cpu time:       0 days  0 hours  2 minutes 25.3 seconds.
 Elapsed time:       0 days  0 hours  2 minutes 26.2 seconds.
 File lengths (MBytes):  RWF=     16 Int=      0 D2E=      0 Chk=      2 Scr=      1
 Normal termination of Gaussian 16 at Sat May 18 08:33:37 2024.
