 Entering Gaussian System, Link 0=g16
 Input=inputFiles/Test5.com
 Output=inputFiles/Test5.log
 Initial command:
 /home/mark/gaussian/g16/l1.exe "/home/mark/gaussian/scratch/Gau-1664.inp" -scrdir="/home/mark/gaussian/scratch/"
 Entering Link 1 = /home/mark/gaussian/g16/l1.exe PID=      1666.
  
 Copyright (c) 1988,1990,1992,1993,1995,1998,2003,2009,2016,
            Gaussian, Inc.  All Rights Reserved.
  
 This is part of the Gaussian(R) 16 program.  It is based on
 the Gaussian(R) 09 system (copyright 2009, Gaussian, Inc.),
 the Gaussian(R) 03 system (copyright 2003, Gaussian, Inc.),
 the Gaussian(R) 98 system (copyright 1998, Gaussian, Inc.),
 the Gaussian(R) 94 system (copyright 1995, Gaussian, Inc.),
 the Gaussian 92(TM) system (copyright 1992, Gaussian, Inc.),
 the Gaussian 90(TM) system (copyright 1990, Gaussian, Inc.),
 the Gaussian 88(TM) system (copyright 1988, Gaussian, Inc.),
 the Gaussian 86(TM) system (copyright 1986, Carnegie Mellon
 University), and the Gaussian 82(TM) system (copyright 1983,
 Carnegie Mellon University). Gaussian is a federally registered
 trademark of Gaussian, Inc.
  
 This software contains proprietary and confidential information,
 including trade secrets, belonging to Gaussian, Inc.
  
 This software is provided under written license and may be
 used, copied, transmitted, or stored only in accord with that
 written license.
  
 The following legend is applicable only to US Government
 contracts under FAR:
  
                    RESTRICTED RIGHTS LEGEND
  
 Use, reproduction and disclosure by the US Government is
 subject to restrictions as set forth in subparagraphs (a)
 and (c) of the Commercial Computer Software - Restricted
 Rights clause in FAR 52.227-19.
  
 Gaussian, Inc.
 340 Quinnipiac St., Bldg. 40, Wallingford CT 06492
  
  
 ---------------------------------------------------------------
 Warning -- This program may not be used in any manner that
 competes with the business of Gaussian, Inc. or will provide
 assistance to any competitor of Gaussian, Inc.  The licensee
 of this program is prohibited from giving any competitor of
 Gaussian, Inc. access to this program.  By using this program,
 the user acknowledges that Gaussian, Inc. is engaged in the
 business of creating and licensing software in the field of
 computational chemistry and represents and warrants to the
 licensee that it is not a competitor of Gaussian, Inc. and that
 it will not use this program in any manner prohibited above.
 ---------------------------------------------------------------
  

 Cite this work as:
 Gaussian 16, Revision A.03,
 M. J. Frisch, G. W. Trucks, H. B. Schlegel, G. E. Scuseria, 
 M. A. Robb, J. R. Cheeseman, G. Scalmani, V. Barone, 
 G. A. Petersson, H. Nakatsuji, X. Li, M. Caricato, A. V. Marenich, 
 J. Bloino, B. G. Janesko, R. Gomperts, B. Mennucci, H. P. Hratchian, 
 J. V. Ortiz, A. F. Izmaylov, J. L. Sonnenberg, D. Williams-Young, 
 F. Ding, F. Lipparini, F. Egidi, J. Goings, B. Peng, A. Petrone, 
 T. Henderson, D. Ranasinghe, V. G. Zakrzewski, J. Gao, N. Rega, 
 G. Zheng, W. Liang, M. Hada, M. Ehara, K. Toyota, R. Fukuda, 
 J. Hasegawa, M. Ishida, T. Nakajima, Y. Honda, O. Kitao, H. Nakai, 
 T. Vreven, K. Throssell, J. A. Montgomery, Jr., J. E. Peralta, 
 F. Ogliaro, M. J. Bearpark, J. J. Heyd, E. N. Brothers, K. N. Kudin, 
 V. N. Staroverov, T. A. Keith, R. Kobayashi, J. Normand, 
 K. Raghavachari, A. P. Rendell, J. C. Burant, S. S. Iyengar, 
 J. Tomasi, M. Cossi, J. M. Millam, M. Klene, C. Adamo, R. Cammi, 
 J. W. Ochterski, R. L. Martin, K. Morokuma, O. Farkas, 
 J. B. Foresman, and D. J. Fox, Gaussian, Inc., Wallingford CT, 2016.
 
 ******************************************
 Gaussian 16:  ES64L-G16RevA.03 25-Dec-2016
                18-May-2024 
 ******************************************
 %NProcShared=1
 Will use up to    1 processors via shared memory.
 %chk=inputFiles/test5.chk
 --------------------
 # wb97xd/aug-cc-pvtz
 --------------------
 1/38=1,172=1/1;
 2/12=2,17=6,18=5,40=1/2;
 3/5=16,6=1,7=10,11=2,25=1,30=1,74=-58/1,2,3;
 4//1;
 5/5=2,38=5/2;
 6/7=2,8=2,9=2,10=2,28=1/1;
 99/5=1,9=1/99;
 ------
 Title5
 ------
 Symbolic Z-matrix:
 Charge =  0 Multiplicity = 1
 Si                   -2.49      3.28      2.84 
 Si                   -4.17      1.87      2.03 
 Si                   -4.28      2.16      1.43 
 
                          Input orientation:                          
 ---------------------------------------------------------------------
 Center     Atomic      Atomic             Coordinates (Angstroms)
 Number     Number       Type             X           Y           Z
 ---------------------------------------------------------------------
      1         14           0       -2.490000    3.280000    2.840000
      2         14           0       -4.170000    1.870000    2.030000
      3         14           0       -4.280000    2.160000    1.430000
 ---------------------------------------------------------------------
                    Distance matrix (angstroms):
                    1          2          3
     1  Si   0.000000
     2  Si   2.338076   0.000000
     3  Si   2.539016   0.675426   0.000000
 Stoichiometry    Si3
 Framework group  CS[SG(Si3)]
 Deg. of freedom     3
 Full point group                 CS      NOp   2
 Largest Abelian subgroup         CS      NOp   2
 Largest concise Abelian subgroup C1      NOp   1
                         Standard orientation:                         
 ---------------------------------------------------------------------
 Center     Atomic      Atomic             Coordinates (Angstroms)
 Number     Number       Type             X           Y           Z
 ---------------------------------------------------------------------
      1         14           0        0.670229   -1.465429   -0.000000
      2         14           0        0.000000    0.774525    0.000000
      3         14           0       -0.670229    0.690904    0.000000
 ---------------------------------------------------------------------
 Rotational constants (GHZ):          87.5188896           4.6120442           4.3811668
 Standard basis: Aug-CC-pVTZ (5D, 7F)
 There are   120 symmetry adapted cartesian basis functions of A'  symmetry.
 There are    57 symmetry adapted cartesian basis functions of A"  symmetry.
 There are    99 symmetry adapted basis functions of A'  symmetry.
 There are    51 symmetry adapted basis functions of A"  symmetry.
   150 basis functions,   345 primitive gaussians,   177 cartesian basis functions
    21 alpha electrons       21 beta electrons
       nuclear repulsion energy       238.7712127110 Hartrees.
 NAtoms=    3 NActive=    3 NUniq=    3 SFac= 1.00D+00 NAtFMM=   60 NAOKFM=F Big=F
 Integral buffers will be    131072 words long.
 Raffenetti 2 integral format.
 Two-electron integral symmetry is turned on.
 Nuclear repulsion after empirical dispersion term =      238.7711183828 Hartrees.
 One-electron integrals computed using PRISM.
 NBasis=   150 RedAO= T EigKep=  1.04D-04  NBF=    99    51
 NBsUse=   149 1.00D-06 EigRej=  5.02D-07 NBFU=    98    51
 ExpMin= 2.37D-02 ExpMax= 2.55D+05 ExpMxC= 2.46D+03 IAcc=3 IRadAn=         5 AccDes= 0.00D+00
 Harris functional with IExCor= 4639 and IRadAn=       5 diagonalized for initial guess.
 HarFok:  IExCor= 4639 AccDes= 0.00D+00 IRadAn=         5 IDoV= 1 UseB2=F ITyADJ=14
 ICtDFT=  3500011 ScaDFX=  1.000000  1.000000  1.000000  1.000000
 FoFCou: FMM=F IPFlag=           0 FMFlag=      100000 FMFlg1=           0
         NFxFlg=           0 DoJE=T BraDBF=F KetDBF=T FulRan=T
         wScrn=  0.000000 ICntrl=       500 IOpCl=  0 I1Cent=   200000004 NGrid=           0
         NMat0=    1 NMatS0=      1 NMatT0=    0 NMatD0=    1 NMtDS0=    0 NMtDT0=    0
 Petite list used in FoFCou.
 Initial guess orbital symmetries:
       Occupied  (A') (A') (A') (A') (A') (A') (A') (A") (A') (A')
                 (A") (A') (A') (A") (A') (A') (A') (A") (A') (A')
                 (A')
       Virtual   (A") (A') (A') (A') (A') (A") (A') (A") (A') (A")
                 (A') (A') (A') (A") (A") (A') (A') (A') (A') (A')
                 (A") (A") (A') (A') (A") (A') (A') (A") (A') (A")
                 (A') (A") (A') (A') (A") (A') (A') (A") (A') (A')
                 (A") (A') (A") (A') (A') (A") (A') (A') (A') (A")
                 (A") (A') (A') (A") (A') (A') (A") (A') (A") (A')
                 (A") (A') (A") (A') (A') (A") (A') (A') (A") (A')
                 (A") (A') (A") (A') (A') (A') (A") (A') (A") (A')
                 (A") (A') (A") (A') (A') (A") (A') (A') (A") (A')
                 (A") (A') (A") (A') (A') (A") (A') (A') (A') (A")
                 (A") (A') (A') (A") (A') (A") (A") (A') (A') (A')
                 (A') (A") (A') (A") (A') (A') (A") (A') (A") (A')
                 (A') (A') (A') (A') (A') (A") (A') (A')
 The electronic state of the initial guess is 1-A'.
 Requested convergence on RMS density matrix=1.00D-08 within 128 cycles.
 Requested convergence on MAX density matrix=1.00D-06.
 Requested convergence on             energy=1.00D-06.
 No special actions if energy rises.
 SCF Done:  E(RwB97XD) =  -859.964827761     A.U. after   18 cycles
            NFock= 18  Conv=0.32D-08     -V/T= 1.9690

 **********************************************************************

            Population analysis using the SCF density.

 **********************************************************************

 Orbital symmetries:
       Occupied  (A') (A') (A') (A') (A') (A') (A') (A") (A') (A')
                 (A") (A") (A') (A') (A') (A') (A') (A") (A') (A')
                 (A')
       Virtual   (A") (A') (A') (A') (A') (A") (A') (A") (A') (A')
                 (A") (A') (A') (A") (A') (A") (A') (A') (A") (A')
                 (A') (A') (A") (A') (A") (A') (A') (A") (A') (A')
                 (A") (A') (A") (A') (A") (A') (A") (A') (A') (A')
                 (A") (A") (A') (A') (A') (A") (A') (A') (A") (A')
                 (A") (A') (A') (A") (A') (A') (A") (A') (A") (A')
                 (A") (A') (A") (A') (A") (A') (A') (A') (A") (A')
                 (A") (A') (A') (A") (A') (A') (A") (A') (A') (A")
                 (A') (A") (A") (A') (A') (A") (A") (A') (A') (A")
                 (A') (A") (A') (A') (A') (A") (A') (A') (A") (A')
                 (A") (A') (A') (A") (A') (A") (A") (A') (A') (A')
                 (A') (A") (A') (A") (A') (A') (A') (A") (A') (A")
                 (A') (A') (A') (A') (A') (A") (A') (A')
 The electronic state is 1-A'.
 Alpha  occ. eigenvalues --  -66.78706 -66.78305 -66.32337  -7.60921  -5.53033
 Alpha  occ. eigenvalues --   -5.42587  -4.83908  -4.83782  -4.80766  -4.14367
 Alpha  occ. eigenvalues --   -4.14342  -3.77484  -3.77195  -3.76107  -3.28786
 Alpha  occ. eigenvalues --   -0.81434  -0.57508  -0.48544  -0.42762  -0.38055
 Alpha  occ. eigenvalues --   -0.22396
 Alpha virt. eigenvalues --   -0.05388  -0.00797   0.01104   0.04556   0.05215
 Alpha virt. eigenvalues --    0.05764   0.05934   0.06193   0.07295   0.07664
 Alpha virt. eigenvalues --    0.07685   0.08265   0.09212   0.11118   0.11703
 Alpha virt. eigenvalues --    0.12233   0.14441   0.15394   0.16884   0.17106
 Alpha virt. eigenvalues --    0.17239   0.19762   0.19856   0.20632   0.21195
 Alpha virt. eigenvalues --    0.21545   0.22285   0.24441   0.24458   0.25611
 Alpha virt. eigenvalues --    0.25813   0.25920   0.26083   0.28866   0.32058
 Alpha virt. eigenvalues --    0.37319   0.38070   0.38108   0.39699   0.41984
 Alpha virt. eigenvalues --    0.42292   0.44345   0.44527   0.45368   0.45989
 Alpha virt. eigenvalues --    0.46342   0.46877   0.49032   0.49096   0.50176
 Alpha virt. eigenvalues --    0.51615   0.52067   0.53840   0.55024   0.55417
 Alpha virt. eigenvalues --    0.58651   0.59328   0.59611   0.59956   0.60251
 Alpha virt. eigenvalues --    0.61324   0.63184   0.65360   0.66845   0.69683
 Alpha virt. eigenvalues --    0.70798   0.72706   0.77112   0.78145   0.82518
 Alpha virt. eigenvalues --    0.83953   0.84429   0.85165   0.85449   0.89747
 Alpha virt. eigenvalues --    0.91326   0.97468   1.06266   1.13058   1.14444
 Alpha virt. eigenvalues --    1.16513   1.17729   1.20101   1.21367   1.22478
 Alpha virt. eigenvalues --    1.22672   1.31433   1.32116   1.32410   1.33065
 Alpha virt. eigenvalues --    1.33959   1.35241   1.36716   1.41330   1.41997
 Alpha virt. eigenvalues --    1.45820   1.46504   1.50252   1.51748   1.52161
 Alpha virt. eigenvalues --    1.53481   1.56153   1.59670   1.61442   1.61523
 Alpha virt. eigenvalues --    1.66409   1.73575   1.75633   1.78826   1.92787
 Alpha virt. eigenvalues --    2.11049   2.19224   2.28599   2.34941   2.54080
 Alpha virt. eigenvalues --    2.63236   2.64209   2.71115   2.97069   2.97158
 Alpha virt. eigenvalues --    3.08011   3.14288   3.40281   3.58967   3.79362
 Alpha virt. eigenvalues --    3.90925   4.03359  12.54436
          Condensed to atoms (all electrons):
               1          2          3
     1  Si  14.889754  -0.173537  -0.291500
     2  Si  -0.173537  14.390753  -0.439723
     3  Si  -0.291500  -0.439723  14.529011
 Mulliken charges:
               1
     1  Si  -0.424717
     2  Si   0.222506
     3  Si   0.202211
 Sum of Mulliken charges =  -0.00000
 Mulliken charges with hydrogens summed into heavy atoms:
               1
     1  Si  -0.424717
     2  Si   0.222506
     3  Si   0.202211
 Electronic spatial extent (au):  <R**2>=            288.9683
 Charge=             -0.0000 electrons
 Dipole moment (field-independent basis, Debye):
    X=              0.1694    Y=              0.7731    Z=             -0.0000  Tot=              0.7914
 Quadrupole moment (field-independent basis, Debye-Ang):
   XX=            -41.6949   YY=            -36.4711   ZZ=            -33.2467
   XY=             -0.6639   XZ=              0.0000   YZ=             -0.0000
 Traceless Quadrupole moment (field-independent basis, Debye-Ang):
   XX=             -4.5573   YY=              0.6664   ZZ=              3.8909
   XY=             -0.6639   XZ=              0.0000   YZ=             -0.0000
 Octapole moment (field-independent basis, Debye-Ang**2):
  XXX=            -10.1485  YYY=             16.8223  ZZZ=             -0.0000  XYY=              5.2353
  XXY=              4.8015  XXZ=              0.0000  XZZ=             -0.1984  YZZ=              1.0902
  YYZ=              0.0000  XYZ=              0.0000
 Hexadecapole moment (field-independent basis, Debye-Ang**3):
 XXXX=           -178.7109 YYYY=           -316.1501 ZZZZ=            -48.3217 XXXY=             66.1886
 XXXZ=              0.0000 YYYX=             38.8739 YYYZ=             -0.0000 ZZZX=              0.0000
 ZZZY=             -0.0000 XXYY=            -76.4214 XXZZ=            -33.7553 YYZZ=            -55.0719
 XXYZ=             -0.0000 YYXZ=              0.0000 ZZXY=             16.1214
 N-N= 2.387711183828D+02 E-N=-2.535228623887D+03  KE= 8.874441576957D+02
 Symmetry A'   KE= 8.088607613847D+02
 Symmetry A"   KE= 7.858339631101D+01
 1\1\GINC-MSI\SP\RwB97XD\Aug-CC-pVTZ\Si3\MARK\18-May-2024\0\\# wb97xd/a
 ug-cc-pvtz\\Title5\\0,1\Si,0,-2.49,3.28,2.84\Si,0,-4.17,1.87,2.03\Si,0
 ,-4.28,2.16,1.43\\Version=ES64L-G16RevA.03\State=1-A'\HF=-859.9648278\
 RMSD=3.229e-09\Dipole=-0.188956,-0.245281,0.0329226\Quadrupole=1.57635
 27,0.6308685,-2.2072212,-0.6765438,-1.2474638,2.0974478\PG=CS [SG(Si3)
 ]\\@


 READER, WHETHER YOU BE DILETTANTE OR PROFESSOR ... SHOW YOURSELF TO BE
 MORE HUMAN THAN CRITICAL, AND THEN YOUR PLEASURE WILL INCREASE.
                                           -- DOMENICO SCARLATTI (1738)
 Job cpu time:       0 days  0 hours  2 minutes 21.2 seconds.
 Elapsed time:       0 days  0 hours  2 minutes 21.6 seconds.
 File lengths (MBytes):  RWF=     16 Int=      0 D2E=      0 Chk=      2 Scr=      1
 Normal termination of Gaussian 16 at Sat May 18 08:35:59 2024.
