 Entering Link 1 = C:\G09W\l1.exe PID=      8840.
  
 Copyright (c) 1988,1990,1992,1993,1995,1998,2003,2009, Gaussian, Inc.
                  All Rights Reserved.
  
 This is part of the Gaussian(R) 09 program.  It is based on
 the Gaussian(R) 03 system (copyright 2003, Gaussian, Inc.),
 the Gaussian(R) 98 system (copyright 1998, Gaussian, Inc.),
 the Gaussian(R) 94 system (copyright 1995, Gaussian, Inc.),
 the Gaussian 92(TM) system (copyright 1992, Gaussian, Inc.),
 the Gaussian 90(TM) system (copyright 1990, Gaussian, Inc.),
 the Gaussian 88(TM) system (copyright 1988, Gaussian, Inc.),
 the Gaussian 86(TM) system (copyright 1986, Carnegie Mellon
 University), and the Gaussian 82(TM) system (copyright 1983,
 Carnegie Mellon University). Gaussian is a federally registered
 trademark of Gaussian, Inc.
  
 This software contains proprietary and confidential information,
 including trade secrets, belonging to Gaussian, Inc.
  
 This software is provided under written license and may be
 used, copied, transmitted, or stored only in accord with that
 written license.
  
 The following legend is applicable only to US Government
 contracts under FAR:
  
                    RESTRICTED RIGHTS LEGEND
  
 Use, reproduction and disclosure by the US Government is
 subject to restrictions as set forth in subparagraphs (a)
 and (c) of the Commercial Computer Software - Restricted
 Rights clause in FAR 52.227-19.
  
 Gaussian, Inc.
 340 Quinnipiac St., Bldg. 40, Wallingford CT 06492
  
  
 ---------------------------------------------------------------
 Warning -- This program may not be used in any manner that
 competes with the business of Gaussian, Inc. or will provide
 assistance to any competitor of Gaussian, Inc.  The licensee
 of this program is prohibited from giving any competitor of
 Gaussian, Inc. access to this program.  By using this program,
 the user acknowledges that Gaussian, Inc. is engaged in the
 business of creating and licensing software in the field of
 computational chemistry and represents and warrants to the
 licensee that it is not a competitor of Gaussian, Inc. and that
 it will not use this program in any manner prohibited above.
 ---------------------------------------------------------------
  

 Cite this work as:
 Gaussian 09, Revision A.02,
 M. J. Frisch, G. W. Trucks, H. B. Schlegel, G. E. Scuseria, 
 M. A. Robb, J. R. Cheeseman, G. Scalmani, V. Barone, B. Mennucci, 
 G. A. Petersson, H. Nakatsuji, M. Caricato, X. Li, H. P. Hratchian, 
 A. F. Izmaylov, J. Bloino, G. Zheng, J. L. Sonnenberg, M. Hada, 
 M. Ehara, K. Toyota, R. Fukuda, J. Hasegawa, M. Ishida, T. Nakajima, 
 Y. Honda, O. Kitao, H. Nakai, T. Vreven, J. A. Montgomery, Jr., 
 J. E. Peralta, F. Ogliaro, M. Bearpark, J. J. Heyd, E. Brothers, 
 K. N. Kudin, V. N. Staroverov, R. Kobayashi, J. Normand, 
 K. Raghavachari, A. Rendell, J. C. Burant, S. S. Iyengar, J. Tomasi, 
 M. Cossi, N. Rega, J. M. Millam, M. Klene, J. E. Knox, J. B. Cross, 
 V. Bakken, C. Adamo, J. Jaramillo, R. Gomperts, R. E. Stratmann, 
 O. Yazyev, A. J. Austin, R. Cammi, C. Pomelli, J. W. Ochterski, 
 R. L. Martin, K. Morokuma, V. G. Zakrzewski, G. A. Voth, 
 P. Salvador, J. J. Dannenberg, S. Dapprich, A. D. Daniels, 
 O. Farkas, J. B. Foresman, J. V. Ortiz, J. Cioslowski, 
 and D. J. Fox, Gaussian, Inc., Wallingford CT, 2009.
 
 ******************************************
 Gaussian 09:  IA32W-G09RevA.02 11-Jun-2009
                08-Apr-2024 
 ******************************************
 %nprocshared=1
 Will use up to    1 processors via shared memory.
 %mem=500MB
 %chk=C:\Users\Gaming\PycharmProjects\computationalChemistryProj1\inputFiles\inpu
 tFilestest0.chk
 --------------------------------------
 # wb97xd/aug-cc-pvtz geom=connectivity
 --------------------------------------
 1/38=1,57=2/1;
 2/12=2,17=6,18=5,40=1/2;
 3/5=16,6=1,7=10,11=2,16=1,25=1,30=1,74=-58/1,2,3;
 4//1;
 5/5=2,38=5/2;
 6/7=2,8=2,9=2,10=2,28=1/1;
 99/5=1,9=1/99;
 ------
 Title0
 ------
 Symbolic Z-matrix:
 Charge =  0 Multiplicity = 3
 O                    -0.04     -0.05      0. 
 H                     0.92     -0.05      0. 
 H                    -0.36      0.85      0. 
 O                     4.28571   0.6391    0. 
 H                     5.24571   0.6391    0. 
 H                     3.96526   1.54403   0. 
 
                          Input orientation:                          
 ---------------------------------------------------------------------
 Center     Atomic      Atomic             Coordinates (Angstroms)
 Number     Number       Type             X           Y           Z
 ---------------------------------------------------------------------
      1          8           0       -0.040000   -0.050000    0.000000
      2          1           0        0.920000   -0.050000    0.000000
      3          1           0       -0.360000    0.850000    0.000000
      4          8           0        4.285714    0.639098    0.000000
      5          1           0        5.245714    0.639098    0.000000
      6          1           0        3.965260    1.544034    0.000000
 ---------------------------------------------------------------------
                    Distance matrix (angstroms):
                    1          2          3          4          5
     1  O    0.000000
     2  H    0.960000   0.000000
     3  H    0.955196   1.564736   0.000000
     4  O    4.380258   3.435533   4.650499   0.000000
     5  H    5.330444   4.380258   5.609680   0.960000   0.000000
     6  H    4.310806   3.437230   4.380588   0.960000   1.567952
                    6
     6  H    0.000000
 Stoichiometry    H4O2(3)
 Framework group  CS[SG(H4O2)]
 Deg. of freedom     9
 Full point group                 CS      NOp   2
 Largest Abelian subgroup         CS      NOp   2
 Largest concise Abelian subgroup C1      NOp   1
                         Standard orientation:                         
 ---------------------------------------------------------------------
 Center     Atomic      Atomic             Coordinates (Angstroms)
 Number     Number       Type             X           Y           Z
 ---------------------------------------------------------------------
      1          8           0        0.079058   -2.267507    0.000000
      2          1           0        0.230084   -1.319461    0.000000
      3          1           0       -0.860077   -2.441935    0.000000
      4          8           0        0.079058    2.112751    0.000000
      5          1           0        0.230084    3.060797    0.000000
      6          1           0       -0.865023    1.938650    0.000000
 ---------------------------------------------------------------------
 Rotational constants (GHZ):    287.1532305      2.8946499      2.8657616
 Standard basis: Aug-CC-pVTZ (5D, 7F)
 There are   124 symmetry adapted basis functions of A'  symmetry.
 There are    60 symmetry adapted basis functions of A"  symmetry.
 Integral buffers will be    262144 words long.
 Raffenetti 2 integral format.
 Two-electron integral symmetry is turned on.
   184 basis functions,   252 primitive gaussians,   210 cartesian basis functions
    11 alpha electrons        9 beta electrons
       nuclear repulsion energy        30.4776176447 Hartrees.
 NAtoms=    6 NActive=    6 NUniq=    6 SFac= 7.50D-01 NAtFMM=   80 NAOKFM=F Big=F
 Nuclear repulsion after empirical dispersion term =       30.4773628179 Hartrees.
 One-electron integrals computed using PRISM.
 NBasis=   184 RedAO= T  NBF=   124    60
 NBsUse=   184 1.00D-06 NBFU=   124    60
 Harris functional with IExCor= 4639 diagonalized for initial guess.
 ExpMin= 2.53D-02 ExpMax= 1.53D+04 ExpMxC= 5.22D+02 IAcc=3 IRadAn=         0 AccDes= 0.00D+00
 HarFok:  IExCor= 4639 AccDes= 0.00D+00 IRadAn=         0 IDoV= 1
 ScaDFX=  1.000000  1.000000  1.000000  1.000000
 FoFCou: FMM=F IPFlag=           0 FMFlag=      100000 FMFlg1=           0
         NFxFlg=           0 DoJE=T BraDBF=F KetDBF=T FulRan=T
         Omega=  0.000000  0.000000  1.000000  0.000000  0.000000 ICntrl=     500 IOpCl=  0
         NMat0=    1 NMatS0=    1 NMatT0=    0 NMatD0=    1 NMtDS0=    0 NMtDT0=    0
         I1Cent=           4 NGrid=           0.
 Petite list used in FoFCou.
 Initial guess orbital symmetries:
 Alpha Orbitals:
       Occupied  (A') (A') (A') (A') (A') (A') (A') (A') (A") (A")
                 (A')
       Virtual   (A') (A') (A') (A') (A") (A') (A') (A") (A') (A')
                 (A') (A') (A') (A") (A") (A') (A') (A") (A') (A')
                 (A") (A') (A') (A') (A') (A') (A') (A') (A') (A')
                 (A') (A") (A') (A") (A") (A") (A') (A') (A') (A")
                 (A") (A') (A') (A") (A") (A') (A") (A') (A') (A")
                 (A') (A') (A') (A') (A') (A") (A') (A") (A') (A')
                 (A") (A') (A") (A') (A') (A') (A') (A") (A") (A')
                 (A") (A') (A") (A') (A') (A') (A') (A') (A') (A')
                 (A') (A") (A") (A") (A") (A') (A') (A') (A") (A")
                 (A') (A') (A') (A') (A') (A") (A") (A') (A') (A')
                 (A') (A") (A") (A') (A') (A') (A') (A') (A') (A")
                 (A") (A") (A") (A') (A') (A') (A') (A") (A") (A")
                 (A") (A") (A") (A') (A') (A') (A') (A') (A') (A')
                 (A') (A') (A') (A") (A") (A') (A') (A') (A') (A")
                 (A") (A') (A') (A') (A') (A') (A') (A") (A") (A')
                 (A') (A") (A") (A") (A") (A') (A') (A") (A") (A")
                 (A") (A') (A') (A') (A') (A') (A') (A') (A') (A')
                 (A') (A') (A')
 Beta  Orbitals:
       Occupied  (A') (A') (A') (A') (A') (A') (A') (A') (A")
       Virtual   (A") (A') (A') (A') (A') (A') (A") (A') (A') (A")
                 (A') (A') (A') (A') (A') (A") (A") (A') (A') (A")
                 (A') (A') (A") (A') (A') (A') (A') (A') (A') (A')
                 (A') (A') (A') (A") (A') (A") (A") (A") (A') (A')
                 (A') (A") (A") (A') (A') (A") (A") (A') (A") (A')
                 (A') (A") (A') (A') (A') (A') (A') (A") (A') (A")
                 (A') (A') (A") (A') (A") (A') (A') (A') (A') (A")
                 (A") (A') (A") (A') (A") (A') (A') (A') (A') (A')
                 (A') (A') (A') (A") (A") (A") (A") (A') (A') (A')
                 (A") (A") (A') (A') (A') (A') (A') (A") (A") (A')
                 (A') (A') (A') (A") (A") (A') (A') (A') (A') (A')
                 (A') (A") (A") (A") (A") (A') (A') (A') (A') (A")
                 (A") (A") (A") (A") (A") (A') (A') (A') (A') (A')
                 (A') (A') (A') (A') (A') (A") (A") (A') (A') (A')
                 (A') (A") (A") (A') (A') (A') (A') (A') (A') (A")
                 (A") (A') (A') (A") (A") (A") (A") (A') (A') (A")
                 (A") (A") (A") (A') (A') (A') (A') (A') (A') (A')
                 (A') (A') (A') (A') (A')
 The electronic state of the initial guess is 3-A".
 Initial guess <Sx>= 0.0000 <Sy>= 0.0000 <Sz>= 1.0000 <S**2>= 2.0000 S= 1.0000
 Requested convergence on RMS density matrix=1.00D-08 within 128 cycles.
 Requested convergence on MAX density matrix=1.00D-06.
 Requested convergence on             energy=1.00D-06.
 No special actions if energy rises.
 FoFJK:  IHMeth= 1 ICntrl=     0 DoSepK=T KAlg= 1 I1Cent= 0 FoldK=F
 FoFJK:  IHMeth= 1 ICntrl=     0 DoSepK=T KAlg= 1 I1Cent= 0 FoldK=F
 FoFJK:  IHMeth= 1 ICntrl=     0 DoSepK=T KAlg= 1 I1Cent= 0 FoldK=F
 FoFJK:  IHMeth= 1 ICntrl=     0 DoSepK=T KAlg= 1 I1Cent= 0 FoldK=F
 FoFJK:  IHMeth= 1 ICntrl=     0 DoSepK=T KAlg= 1 I1Cent= 0 FoldK=F
 FoFJK:  IHMeth= 1 ICntrl=     0 DoSepK=T KAlg= 1 I1Cent= 0 FoldK=F
 FoFJK:  IHMeth= 1 ICntrl=     0 DoSepK=T KAlg= 1 I1Cent= 0 FoldK=F
 FoFJK:  IHMeth= 1 ICntrl=     0 DoSepK=T KAlg= 1 I1Cent= 0 FoldK=F
 FoFJK:  IHMeth= 1 ICntrl=     0 DoSepK=T KAlg= 1 I1Cent= 0 FoldK=F
 Rare condition: small coef for last iteration:  0.000D+00
 FoFJK:  IHMeth= 1 ICntrl=     0 DoSepK=T KAlg= 1 I1Cent= 0 FoldK=F
 Rare condition: small coef for last iteration:  0.000D+00
 FoFJK:  IHMeth= 1 ICntrl=     0 DoSepK=T KAlg= 1 I1Cent= 0 FoldK=F
 Rare condition: small coef for last iteration:  0.000D+00
 FoFJK:  IHMeth= 1 ICntrl=     0 DoSepK=T KAlg= 1 I1Cent= 0 FoldK=F
 FoFJK:  IHMeth= 1 ICntrl=     0 DoSepK=T KAlg= 1 I1Cent= 0 FoldK=F
 Rare condition: small coef for last iteration:  0.000D+00
 FoFJK:  IHMeth= 1 ICntrl=     0 DoSepK=T KAlg= 1 I1Cent= 0 FoldK=F
 Rare condition: small coef for last iteration:  0.000D+00
 FoFJK:  IHMeth= 1 ICntrl=     0 DoSepK=T KAlg= 1 I1Cent= 0 FoldK=F
 Rare condition: small coef for last iteration:  0.000D+00
 FoFJK:  IHMeth= 1 ICntrl=     0 DoSepK=T KAlg= 1 I1Cent= 0 FoldK=F
 FoFJK:  IHMeth= 1 ICntrl=     0 DoSepK=T KAlg= 1 I1Cent= 0 FoldK=F
 FoFJK:  IHMeth= 1 ICntrl=     0 DoSepK=T KAlg= 1 I1Cent= 0 FoldK=F
 FoFJK:  IHMeth= 1 ICntrl=     0 DoSepK=T KAlg= 1 I1Cent= 0 FoldK=F
 Restarting incremental Fock formation.
 FoFJK:  IHMeth= 1 ICntrl=     0 DoSepK=T KAlg= 1 I1Cent= 0 FoldK=F
 FoFJK:  IHMeth= 1 ICntrl=     0 DoSepK=T KAlg= 1 I1Cent= 0 FoldK=F
 FoFJK:  IHMeth= 1 ICntrl=     0 DoSepK=T KAlg= 1 I1Cent= 0 FoldK=F
 FoFJK:  IHMeth= 1 ICntrl=     0 DoSepK=T KAlg= 1 I1Cent= 0 FoldK=F
 FoFJK:  IHMeth= 1 ICntrl=     0 DoSepK=T KAlg= 1 I1Cent= 0 FoldK=F
 SCF Done:  E(UwB97XD) =  -152.589257643     A.U. after   24 cycles
             Convg  =    0.3288D-08             -V/T =  2.0042
 <Sx>= 0.0000 <Sy>= 0.0000 <Sz>= 1.0000 <S**2>= 2.0065 S= 1.0022
 <L.S>= 0.000000000000E+00
 Annihilation of the first spin contaminant:
 S**2 before annihilation     2.0065,   after     2.0000

 **********************************************************************

            Population analysis using the SCF density.

 **********************************************************************

 Orbital symmetries:
 Alpha Orbitals:
       Occupied  (A') (A') (A') (A') (A') (A') (A') (A') (A") (A")
                 (A')
       Virtual   (A') (A') (A') (A') (A') (A") (A') (A') (A") (A')
                 (A') (A') (A') (A") (A") (A') (A') (A") (A') (A')
                 (A") (A') (A') (A') (A') (A') (A') (A') (A') (A')
                 (A') (A") (A') (A") (A") (A") (A') (A') (A') (A")
                 (A") (A') (A') (A") (A") (A") (A') (A') (A') (A")
                 (A') (A') (A') (A') (A') (A") (A') (A") (A') (A')
                 (A") (A') (A") (A') (A') (A') (A') (A") (A") (A")
                 (A') (A") (A') (A') (A') (A') (A') (A') (A') (A')
                 (A') (A") (A") (A") (A") (A') (A') (A') (A") (A')
                 (A") (A') (A') (A') (A') (A") (A") (A') (A') (A')
                 (A') (A") (A") (A') (A') (A') (A') (A') (A') (A")
                 (A") (A") (A") (A') (A') (A') (A') (A") (A") (A")
                 (A") (A") (A") (A') (A') (A') (A') (A') (A') (A')
                 (A') (A') (A') (A") (A") (A') (A') (A') (A') (A")
                 (A") (A') (A') (A') (A') (A') (A') (A") (A") (A')
                 (A') (A") (A") (A") (A') (A") (A') (A") (A") (A")
                 (A") (A') (A') (A') (A') (A') (A') (A') (A') (A')
                 (A') (A') (A')
 Beta  Orbitals:
       Occupied  (A') (A') (A') (A') (A') (A') (A') (A') (A")
       Virtual   (A") (A') (A') (A') (A') (A') (A") (A') (A') (A")
                 (A') (A') (A') (A') (A') (A") (A') (A") (A') (A")
                 (A') (A') (A") (A') (A') (A') (A') (A') (A') (A')
                 (A') (A') (A') (A") (A') (A") (A") (A") (A') (A')
                 (A') (A") (A") (A') (A') (A") (A") (A') (A") (A')
                 (A') (A") (A') (A') (A') (A') (A") (A') (A") (A')
                 (A') (A') (A") (A") (A') (A') (A') (A') (A') (A")
                 (A") (A") (A') (A") (A') (A') (A') (A') (A') (A')
                 (A') (A') (A') (A") (A") (A") (A") (A') (A') (A')
                 (A") (A") (A') (A') (A') (A') (A') (A") (A") (A')
                 (A') (A') (A') (A") (A") (A') (A') (A') (A') (A')
                 (A') (A") (A") (A") (A") (A') (A') (A') (A') (A")
                 (A") (A") (A") (A") (A") (A') (A') (A') (A') (A')
                 (A') (A') (A') (A') (A') (A") (A") (A') (A') (A')
                 (A') (A") (A") (A') (A') (A') (A') (A') (A') (A")
                 (A") (A') (A') (A") (A") (A") (A") (A') (A') (A")
                 (A") (A") (A") (A') (A') (A') (A') (A') (A') (A')
                 (A') (A') (A') (A') (A')
 The electronic state is 3-A".
 Alpha  occ. eigenvalues --  -19.39899 -19.38906  -1.24574  -1.23497  -0.73955
 Alpha  occ. eigenvalues --   -0.72960  -0.59010  -0.57919  -0.55965  -0.54665
 Alpha  occ. eigenvalues --   -0.14310
 Alpha virt. eigenvalues --    0.00265   0.03318   0.04114   0.08532   0.10037
 Alpha virt. eigenvalues --    0.10297   0.13251   0.13824   0.14426   0.14697
 Alpha virt. eigenvalues --    0.16725   0.18820   0.19947   0.22050   0.23764
 Alpha virt. eigenvalues --    0.24982   0.25785   0.26776   0.28060   0.29103
 Alpha virt. eigenvalues --    0.29793   0.34714   0.35711   0.36871   0.37628
 Alpha virt. eigenvalues --    0.38855   0.46083   0.50086   0.53629   0.56469
 Alpha virt. eigenvalues --    0.58532   0.60854   0.61305   0.62154   0.62875
 Alpha virt. eigenvalues --    0.63347   0.65656   0.73102   0.73661   0.74420
 Alpha virt. eigenvalues --    0.75277   0.77999   0.79952   0.79987   0.82116
 Alpha virt. eigenvalues --    0.82962   0.83350   0.84441   0.85941   0.87321
 Alpha virt. eigenvalues --    0.88676   0.89776   0.92234   0.93054   0.94438
 Alpha virt. eigenvalues --    0.96051   0.97456   0.98084   1.01652   1.02792
 Alpha virt. eigenvalues --    1.08913   1.10546   1.11235   1.12434   1.15882
 Alpha virt. eigenvalues --    1.18145   1.24252   1.35289   1.37968   1.43330
 Alpha virt. eigenvalues --    1.43788   1.45483   1.46503   1.59139   1.60741
 Alpha virt. eigenvalues --    1.62999   1.64660   1.78523   1.81807   1.88709
 Alpha virt. eigenvalues --    1.90452   1.97682   1.99611   2.05104   2.07589
 Alpha virt. eigenvalues --    2.09265   2.12088   2.14123   2.16624   2.17507
 Alpha virt. eigenvalues --    2.18255   2.20490   2.24825   2.26499   2.29805
 Alpha virt. eigenvalues --    2.44700   2.45223   2.46206   2.49623   2.50212
 Alpha virt. eigenvalues --    2.53780   2.61299   2.63005   2.65900   2.70956
 Alpha virt. eigenvalues --    3.34854   3.36822   3.47984   3.48967   3.64848
 Alpha virt. eigenvalues --    3.65376   3.73204   3.74537   3.95119   3.95438
 Alpha virt. eigenvalues --    3.96449   3.97562   4.06693   4.07169   4.10407
 Alpha virt. eigenvalues --    4.10969   4.11122   4.13087   4.16348   4.17372
 Alpha virt. eigenvalues --    4.19293   4.22770   4.31452   4.33217   4.44675
 Alpha virt. eigenvalues --    4.47015   4.80658   4.81217   4.83086   4.83763
 Alpha virt. eigenvalues --    4.93551   4.93564   4.98657   5.00442   5.09721
 Alpha virt. eigenvalues --    5.10061   5.36189   5.39402   5.69891   5.70011
 Alpha virt. eigenvalues --    6.05721   6.09321   6.20676   6.21967   6.34995
 Alpha virt. eigenvalues --    6.36290   6.59962   6.61811   6.72033   6.72498
 Alpha virt. eigenvalues --    6.72498   6.74875   6.78615   6.80198   6.81190
 Alpha virt. eigenvalues --    6.81658   6.90929   6.93685   7.05092   7.11564
 Alpha virt. eigenvalues --    7.38394   7.40467   7.44442   7.45586   8.24672
 Alpha virt. eigenvalues --    8.26525  15.03903  15.23002
  Beta  occ. eigenvalues --  -19.38511 -19.37611  -1.20396  -1.19675  -0.72553
  Beta  occ. eigenvalues --   -0.71597  -0.57052  -0.56263  -0.39956
  Beta virt. eigenvalues --   -0.28186   0.04160   0.07323   0.11562   0.13448
  Beta virt. eigenvalues --    0.15212   0.16364   0.17657   0.18198   0.19367
  Beta virt. eigenvalues --    0.19984   0.21880   0.22086   0.24017   0.24612
  Beta virt. eigenvalues --    0.25298   0.28468   0.29287   0.29702   0.31790
  Beta virt. eigenvalues --    0.32326   0.32964   0.33839   0.40969   0.41741
  Beta virt. eigenvalues --    0.43853   0.44967   0.49528   0.50690   0.53257
  Beta virt. eigenvalues --    0.56913   0.59911   0.62488   0.62953   0.63872
  Beta virt. eigenvalues --    0.65255   0.66465   0.66737   0.68586   0.74564
  Beta virt. eigenvalues --    0.75432   0.77797   0.78724   0.79479   0.81632
  Beta virt. eigenvalues --    0.81840   0.83381   0.84089   0.84681   0.87022
  Beta virt. eigenvalues --    0.88521   0.88555   0.90603   0.91550   0.93976
  Beta virt. eigenvalues --    0.96093   0.97092   0.97800   0.99189   1.00123
  Beta virt. eigenvalues --    1.02974   1.04753   1.09847   1.12224   1.12290
  Beta virt. eigenvalues --    1.13935   1.17698   1.19198   1.26210   1.36211
  Beta virt. eigenvalues --    1.39354   1.44909   1.44921   1.46703   1.47784
  Beta virt. eigenvalues --    1.61248   1.62845   1.64198   1.65492   1.80475
  Beta virt. eigenvalues --    1.83067   1.90473   1.91309   1.99597   2.01554
  Beta virt. eigenvalues --    2.06400   2.08910   2.09737   2.12717   2.16689
  Beta virt. eigenvalues --    2.17117   2.18751   2.19510   2.21532   2.25899
  Beta virt. eigenvalues --    2.27402   2.30923   2.46808   2.47307   2.47346
  Beta virt. eigenvalues --    2.51057   2.51459   2.54734   2.63324   2.65205
  Beta virt. eigenvalues --    2.66208   2.71553   3.35167   3.37290   3.48536
  Beta virt. eigenvalues --    3.49520   3.68827   3.69238   3.73032   3.74443
  Beta virt. eigenvalues --    3.95086   3.95476   3.96459   3.97528   4.06767
  Beta virt. eigenvalues --    4.07320   4.10407   4.10961   4.11348   4.13158
  Beta virt. eigenvalues --    4.16384   4.17895   4.19331   4.22867   4.32637
  Beta virt. eigenvalues --    4.34246   4.45417   4.47438   4.81053   4.81495
  Beta virt. eigenvalues --    4.83952   4.84626   4.95049   4.95333   4.99267
  Beta virt. eigenvalues --    5.00778   5.12147   5.12515   5.36522   5.39701
  Beta virt. eigenvalues --    5.71179   5.71379   6.08889   6.12281   6.23684
  Beta virt. eigenvalues --    6.24800   6.38110   6.39498   6.64131   6.65696
  Beta virt. eigenvalues --    6.75963   6.76133   6.76276   6.78420   6.82434
  Beta virt. eigenvalues --    6.83379   6.84728   6.85027   6.92227   6.94964
  Beta virt. eigenvalues --    7.06596   7.13183   7.39230   7.41395   7.46045
  Beta virt. eigenvalues --    7.47174   8.25912   8.27806  15.06140  15.25249
          Condensed to atoms (all electrons):
              1          2          3          4          5          6
     1  O    7.704357   0.190572   0.218480  -0.005208   0.001595   0.026440
     2  H    0.190572   0.537657   0.054208  -0.016985   0.007662   0.069949
     3  H    0.218480   0.054208   0.591171  -0.009345   0.004367   0.069027
     4  O   -0.005208  -0.016985  -0.009345   7.760343   0.108751   0.083877
     5  H    0.001595   0.007662   0.004367   0.108751   0.669308   0.100789
     6  H    0.026440   0.069949   0.069027   0.083877   0.100789   0.928808
 Mulliken atomic charges:
              1
     1  O   -0.136236
     2  H    0.156938
     3  H    0.072092
     4  O    0.078568
     5  H    0.107527
     6  H   -0.278889
 Sum of Mulliken atomic charges =   0.00000
 Mulliken charges with hydrogens summed into heavy atoms:
              1
     1  O    0.092794
     4  O   -0.092794
 Sum of Mulliken charges with hydrogens summed into heavy atoms =   0.00000
          Atomic-Atomic Spin Densities.
              1          2          3          4          5          6
     1  O    0.575893   0.031254   0.040322  -0.005111   0.001513   0.025844
     2  H    0.031254  -0.017039   0.030784  -0.017532   0.007493   0.069016
     3  H    0.040322   0.030784   0.036845  -0.009991   0.004515   0.069342
     4  O   -0.005111  -0.017532  -0.009991   0.655361  -0.080437  -0.127051
     5  H    0.001513   0.007493   0.004515  -0.080437   0.063979   0.100458
     6  H    0.025844   0.069016   0.069342  -0.127051   0.100458   0.404126
 Mulliken atomic spin densities:
              1
     1  O    0.669714
     2  H    0.103975
     3  H    0.171816
     4  O    0.415239
     5  H    0.097521
     6  H    0.541735
 Sum of Mulliken atomic spin densities =   2.00000
 Electronic spatial extent (au):  <R**2>=            392.3999
 Charge=              0.0000 electrons
 Dipole moment (field-independent basis, Debye):
    X=              1.0019    Y=              0.5152    Z=              0.0000  Tot=              1.1266
 Quadrupole moment (field-independent basis, Debye-Ang):
   XX=            -22.0801   YY=             -6.9140   ZZ=            -21.5163
   XY=              3.9742   XZ=              0.0000   YZ=              0.0000
 Traceless Quadrupole moment (field-independent basis, Debye-Ang):
   XX=             -5.2433   YY=              9.9228   ZZ=             -4.6795
   XY=              3.9742   XZ=              0.0000   YZ=              0.0000
 Octapole moment (field-independent basis, Debye-Ang**2):
  XXX=             22.5231  YYY=             14.8654  ZZZ=              0.0000  XYY=              3.1467
  XXY=             -6.8544  XXZ=              0.0000  XZZ=              7.0605  YZZ=             -3.7562
  YYZ=              0.0000  XYZ=              0.0000
 Hexadecapole moment (field-independent basis, Debye-Ang**3):
 XXXX=           -122.3087 YYYY=           -413.9327 ZZZZ=            -75.9262 XXXY=             16.2965
 XXXZ=              0.0000 YYYX=             48.9443 YYYZ=              0.0000 ZZZX=              0.0000
 ZZZY=              0.0000 XXYY=           -107.1490 XXZZ=            -32.8210 YYZZ=           -105.7567
 XXYZ=              0.0000 YYXZ=              0.0000 ZZXY=              4.1221
 N-N= 3.047736281795D+01 E-N=-6.219389209840D+02  KE= 2.262177866918D+02
 Symmetry A'   KE= 2.167799409730D+02
 Symmetry A"   KE= 9.437845718784D+00
                          Isotropic Fermi Contact Couplings
        Atom                 a.u.       MegaHertz       Gauss      10(-4) cm-1
     1  O(17)              0.22771     -69.01691     -24.62695     -23.02156
     2  H(1)              -0.00617     -13.78330      -4.91822      -4.59761
     3  H(1)              -0.00701     -15.65755      -5.58700      -5.22280
     4  O(17)              0.33285    -100.88723     -35.99907     -33.65236
     5  H(1)              -0.00275      -6.13510      -2.18916      -2.04645
     6  H(1)              -0.00509     -11.37414      -4.05858      -3.79400
 --------------------------------------------------------
       Center         ----  Spin Dipole Couplings  ----
                      3XX-RR        3YY-RR        3ZZ-RR
 --------------------------------------------------------
     1   Atom       -1.094759     -0.997142      2.091901
     2   Atom       -0.078686      0.119130     -0.040444
     3   Atom        0.100430     -0.066264     -0.034167
     4   Atom       -0.937310     -1.030808      1.968118
     5   Atom       -0.065195      0.092193     -0.026997
     6   Atom        0.098320     -0.061545     -0.036776
 --------------------------------------------------------
                        XY            XZ            YZ
 --------------------------------------------------------
     1   Atom       -0.103232      0.000000      0.000000
     2   Atom        0.035145      0.000000      0.000000
     3   Atom        0.041924      0.000000      0.000000
     4   Atom       -0.020682      0.000000      0.000000
     5   Atom        0.033285      0.000000      0.000000
     6   Atom        0.041893      0.000000      0.000000
 --------------------------------------------------------


 ---------------------------------------------------------------------------------
              Anisotropic Spin Dipole Couplings in Principal Axis System
 ---------------------------------------------------------------------------------

       Atom             a.u.   MegaHertz   Gauss  10(-4) cm-1        Axes

              Baa    -1.1601    83.947    29.954    28.002  0.8448  0.5351  0.0000
     1 O(17)  Bbb    -0.9318    67.422    24.058    22.489 -0.5351  0.8448  0.0000
              Bcc     2.0919  -151.368   -54.012   -50.491  0.0000  0.0000  1.0000
 
              Baa    -0.0847   -45.216   -16.134   -15.082  0.9855 -0.1699  0.0000
     2 H(1)   Bbb    -0.0404   -21.579    -7.700    -7.198  0.0000  0.0000  1.0000
              Bcc     0.1252    66.795    23.834    22.280  0.1699  0.9855  0.0000
 
              Baa    -0.0762   -40.664   -14.510   -13.564 -0.2309  0.9730  0.0000
     3 H(1)   Bbb    -0.0342   -18.230    -6.505    -6.081  0.0000  0.0000  1.0000
              Bcc     0.1104    58.894    21.015    19.645  0.9730  0.2309  0.0000
 
              Baa    -1.0352    74.905    26.728    24.986  0.2068  0.9784  0.0000
     4 O(17)  Bbb    -0.9329    67.507    24.088    22.518  0.9784 -0.2068  0.0000
              Bcc     1.9681  -142.412   -50.816   -47.503  0.0000  0.0000  1.0000
 
              Baa    -0.0719   -38.387   -13.697   -12.804  0.9801 -0.1987  0.0000
     5 H(1)   Bbb    -0.0270   -14.405    -5.140    -4.805  0.0000  0.0000  1.0000
              Bcc     0.0989    52.791    18.837    17.609  0.1987  0.9801  0.0000
 
              Baa    -0.0719   -38.340   -13.681   -12.789 -0.2390  0.9710  0.0000
     6 H(1)   Bbb    -0.0368   -19.622    -7.002    -6.545  0.0000  0.0000  1.0000
              Bcc     0.1086    57.962    20.682    19.334  0.9710  0.2390  0.0000
 

 ---------------------------------------------------------------------------------

 1|1|UNPC-MSI|SP|UwB97XD|Aug-CC-pVTZ|H4O2(3)|GAMING|08-Apr-2024|0||# wb
 97xd/aug-cc-pvtz geom=connectivity||Title0||0,3|O,0,-0.04,-0.05,0.|H,0
 ,0.92,-0.05,0.|H,0,-0.36,0.85,0.|O,0,4.28571428,0.63909773,0.|H,0,5.24
 571428,0.63909773,0.|H,0,3.96525969,1.54403357,0.||Version=IA32W-G09Re
 vA.02|State=3-A"|HF=-152.5892576|S2=2.006516|S2-1=0.|S2A=2.000013|RMSD
 =3.288e-009|Dipole=0.2621799,-0.3574019,0.|Quadrupole=8.0163986,-4.537
 3059,-3.4790926,-1.0567026,0.,0.|PG=CS [SG(H4O2)]||@


 IT WAS A GAME, A VERY INTERESTING GAME ONE COULD
 PLAY.  WHENEVER ONE SOLVED ONE OF THE LITTLE PROBLEMS,
 ONE COULD WRITE A PAPER ABOUT IT.  IT WAS VERY EASY IN
 THOSE DAYS FOR ANY SECOND-RATE PHYSICIST TO DO
 FIRST-RATE WORK.  THERE HAS NOT BEEN SUCH A GLORIOUS
 TIME SINCE.  IT IS VERY DIFFICULT NOW FOR A FIRST-RATE
 PHYSICIST TO DO SECOND-RATE WORK.
     P.A.M. DIRAC, ON THE EARLY DAYS OF QUANTUM MECHANICS
                   DIRECTIONS IN PHYSICS, 1978, P. 7
 Job cpu time:  0 days  0 hours  3 minutes 18.0 seconds.
 File lengths (MBytes):  RWF=     37 Int=      0 D2E=      0 Chk=      2 Scr=      1
 Normal termination of Gaussian 09 at Mon Apr 08 11:45:11 2024.
