 Entering Gaussian System, Link 0=g16
 Input=inputFiles/Test3.com
 Output=inputFiles/Test3.log
 Initial command:
 /home/mark/gaussian/g16/l1.exe "/home/mark/gaussian/scratch/Gau-1628.inp" -scrdir="/home/mark/gaussian/scratch/"
 Entering Link 1 = /home/mark/gaussian/g16/l1.exe PID=      1630.
  
 Copyright (c) 1988,1990,1992,1993,1995,1998,2003,2009,2016,
            Gaussian, Inc.  All Rights Reserved.
  
 This is part of the Gaussian(R) 16 program.  It is based on
 the Gaussian(R) 09 system (copyright 2009, Gaussian, Inc.),
 the Gaussian(R) 03 system (copyright 2003, Gaussian, Inc.),
 the Gaussian(R) 98 system (copyright 1998, Gaussian, Inc.),
 the Gaussian(R) 94 system (copyright 1995, Gaussian, Inc.),
 the Gaussian 92(TM) system (copyright 1992, Gaussian, Inc.),
 the Gaussian 90(TM) system (copyright 1990, Gaussian, Inc.),
 the Gaussian 88(TM) system (copyright 1988, Gaussian, Inc.),
 the Gaussian 86(TM) system (copyright 1986, Carnegie Mellon
 University), and the Gaussian 82(TM) system (copyright 1983,
 Carnegie Mellon University). Gaussian is a federally registered
 trademark of Gaussian, Inc.
  
 This software contains proprietary and confidential information,
 including trade secrets, belonging to Gaussian, Inc.
  
 This software is provided under written license and may be
 used, copied, transmitted, or stored only in accord with that
 written license.
  
 The following legend is applicable only to US Government
 contracts under FAR:
  
                    RESTRICTED RIGHTS LEGEND
  
 Use, reproduction and disclosure by the US Government is
 subject to restrictions as set forth in subparagraphs (a)
 and (c) of the Commercial Computer Software - Restricted
 Rights clause in FAR 52.227-19.
  
 Gaussian, Inc.
 340 Quinnipiac St., Bldg. 40, Wallingford CT 06492
  
  
 ---------------------------------------------------------------
 Warning -- This program may not be used in any manner that
 competes with the business of Gaussian, Inc. or will provide
 assistance to any competitor of Gaussian, Inc.  The licensee
 of this program is prohibited from giving any competitor of
 Gaussian, Inc. access to this program.  By using this program,
 the user acknowledges that Gaussian, Inc. is engaged in the
 business of creating and licensing software in the field of
 computational chemistry and represents and warrants to the
 licensee that it is not a competitor of Gaussian, Inc. and that
 it will not use this program in any manner prohibited above.
 ---------------------------------------------------------------
  

 Cite this work as:
 Gaussian 16, Revision A.03,
 M. J. Frisch, G. W. Trucks, H. B. Schlegel, G. E. Scuseria, 
 M. A. Robb, J. R. Cheeseman, G. Scalmani, V. Barone, 
 G. A. Petersson, H. Nakatsuji, X. Li, M. Caricato, A. V. Marenich, 
 J. Bloino, B. G. Janesko, R. Gomperts, B. Mennucci, H. P. Hratchian, 
 J. V. Ortiz, A. F. Izmaylov, J. L. Sonnenberg, D. Williams-Young, 
 F. Ding, F. Lipparini, F. Egidi, J. Goings, B. Peng, A. Petrone, 
 T. Henderson, D. Ranasinghe, V. G. Zakrzewski, J. Gao, N. Rega, 
 G. Zheng, W. Liang, M. Hada, M. Ehara, K. Toyota, R. Fukuda, 
 J. Hasegawa, M. Ishida, T. Nakajima, Y. Honda, O. Kitao, H. Nakai, 
 T. Vreven, K. Throssell, J. A. Montgomery, Jr., J. E. Peralta, 
 F. Ogliaro, M. J. Bearpark, J. J. Heyd, E. N. Brothers, K. N. Kudin, 
 V. N. Staroverov, T. A. Keith, R. Kobayashi, J. Normand, 
 K. Raghavachari, A. P. Rendell, J. C. Burant, S. S. Iyengar, 
 J. Tomasi, M. Cossi, J. M. Millam, M. Klene, C. Adamo, R. Cammi, 
 J. W. Ochterski, R. L. Martin, K. Morokuma, O. Farkas, 
 J. B. Foresman, and D. J. Fox, Gaussian, Inc., Wallingford CT, 2016.
 
 ******************************************
 Gaussian 16:  ES64L-G16RevA.03 25-Dec-2016
                18-May-2024 
 ******************************************
 %NProcShared=1
 Will use up to    1 processors via shared memory.
 %chk=inputFiles/test3.chk
 --------------------
 # wb97xd/aug-cc-pvtz
 --------------------
 1/38=1,172=1/1;
 2/12=2,17=6,18=5,40=1/2;
 3/5=16,6=1,7=10,11=2,25=1,30=1,74=-58/1,2,3;
 4//1;
 5/5=2,38=5/2;
 6/7=2,8=2,9=2,10=2,28=1/1;
 99/5=1,9=1/99;
 ------
 Title3
 ------
 Symbolic Z-matrix:
 Charge =  0 Multiplicity = 2
 H                     6.02      5.84      3.27 
 H                    -1.63      5.36      7.04 
 H                     5.06      1.79      7.22 
 
                          Input orientation:                          
 ---------------------------------------------------------------------
 Center     Atomic      Atomic             Coordinates (Angstroms)
 Number     Number       Type             X           Y           Z
 ---------------------------------------------------------------------
      1          1           0        6.020000    5.840000    3.270000
      2          1           0       -1.630000    5.360000    7.040000
      3          1           0        5.060000    1.790000    7.220000
 ---------------------------------------------------------------------
                    Distance matrix (angstroms):
                    1          2          3
     1  H    0.000000
     2  H    8.542002   0.000000
     3  H    5.738170   7.585077   0.000000
 Stoichiometry    H3(2)
 Framework group  CS[SG(H3)]
 Deg. of freedom     3
 Full point group                 CS      NOp   2
 Largest Abelian subgroup         CS      NOp   2
 Largest concise Abelian subgroup C1      NOp   1
                         Standard orientation:                         
 ---------------------------------------------------------------------
 Center     Atomic      Atomic             Coordinates (Angstroms)
 Number     Number       Type             X           Y           Z
 ---------------------------------------------------------------------
      1          1           0        4.103565   -0.547537   -0.000000
      2          1           0       -4.103565   -2.915830    0.000000
      3          1           0        0.000000    3.463367   -0.000000
 ---------------------------------------------------------------------
 Rotational constants (GHZ):          32.1886949          12.8919845           9.2051886
 Standard basis: Aug-CC-pVTZ (5D, 7F)
 There are    54 symmetry adapted cartesian basis functions of A'  symmetry.
 There are    21 symmetry adapted cartesian basis functions of A"  symmetry.
 There are    48 symmetry adapted basis functions of A'  symmetry.
 There are    21 symmetry adapted basis functions of A"  symmetry.
    69 basis functions,    81 primitive gaussians,    75 cartesian basis functions
     2 alpha electrons        1 beta electrons
       nuclear repulsion energy         0.2239361317 Hartrees.
 NAtoms=    3 NActive=    3 NUniq=    3 SFac= 1.00D+00 NAtFMM=   60 NAOKFM=F Big=F
 Integral buffers will be    131072 words long.
 Raffenetti 2 integral format.
 Two-electron integral symmetry is turned on.
 Nuclear repulsion after empirical dispersion term =        0.2239342207 Hartrees.
 One-electron integrals computed using PRISM.
 NBasis=    69 RedAO= T EigKep=  6.26D-02  NBF=    48    21
 NBsUse=    69 1.00D-06 EigRej= -1.00D+00 NBFU=    48    21
 ExpMin= 2.53D-02 ExpMax= 3.39D+01 ExpMxC= 3.39D+01 IAcc=3 IRadAn=         5 AccDes= 0.00D+00
 Harris functional with IExCor= 4639 and IRadAn=       5 diagonalized for initial guess.
 HarFok:  IExCor= 4639 AccDes= 0.00D+00 IRadAn=         5 IDoV= 1 UseB2=F ITyADJ=14
 ICtDFT=  3500011 ScaDFX=  1.000000  1.000000  1.000000  1.000000
 FoFCou: FMM=F IPFlag=           0 FMFlag=      100000 FMFlg1=           0
         NFxFlg=           0 DoJE=T BraDBF=F KetDBF=T FulRan=T
         wScrn=  0.000000 ICntrl=       500 IOpCl=  0 I1Cent=   200000004 NGrid=           0
         NMat0=    1 NMatS0=      1 NMatT0=    0 NMatD0=    1 NMtDS0=    0 NMtDT0=    0
 Petite list used in FoFCou.
 Initial guess orbital symmetries:
 Alpha Orbitals:
       Occupied  (A') (A')
       Virtual   (A') (A') (A') (A') (A') (A") (A') (A") (A') (A')
                 (A") (A') (A') (A') (A') (A') (A') (A") (A') (A")
                 (A") (A') (A") (A') (A") (A') (A') (A') (A") (A')
                 (A') (A') (A") (A') (A") (A') (A') (A") (A') (A')
                 (A') (A') (A') (A") (A') (A') (A") (A") (A') (A")
                 (A") (A') (A') (A') (A") (A') (A') (A') (A') (A")
                 (A') (A") (A') (A') (A") (A') (A')
 Beta  Orbitals:
       Occupied  (A')
       Virtual   (A') (A') (A') (A') (A') (A') (A") (A') (A") (A')
                 (A') (A") (A') (A') (A') (A') (A') (A') (A") (A')
                 (A") (A") (A') (A") (A') (A") (A') (A') (A') (A")
                 (A') (A') (A') (A") (A') (A") (A') (A') (A") (A')
                 (A') (A') (A') (A') (A") (A') (A') (A") (A") (A')
                 (A") (A") (A') (A') (A') (A") (A') (A') (A') (A')
                 (A") (A') (A") (A') (A') (A") (A') (A')
 The electronic state of the initial guess is 2-A'.
 Initial guess <Sx>= 0.0000 <Sy>= 0.0000 <Sz>= 0.5000 <S**2>= 0.7500 S= 0.5000
 Keep R1 and R2 ints in memory in symmetry-blocked form, NReq=8839149.
 Requested convergence on RMS density matrix=1.00D-08 within 128 cycles.
 Requested convergence on MAX density matrix=1.00D-06.
 Requested convergence on             energy=1.00D-06.
 No special actions if energy rises.
 Rare condition: small coef for last iteration:  0.000D+00
 SCF Done:  E(UwB97XD) =  -1.50839808803     A.U. after   17 cycles
            NFock= 17  Conv=0.79D-08     -V/T= 2.0162
 <Sx>= 0.0000 <Sy>= 0.0000 <Sz>= 0.5000 <S**2>= 1.7500 S= 0.9142
 <L.S>= 0.000000000000E+00
 Annihilation of the first spin contaminant:
 S**2 before annihilation     1.7500,   after     0.7500

 **********************************************************************

            Population analysis using the SCF density.

 **********************************************************************

 Orbital symmetries:
 Alpha Orbitals:
       Occupied  (A') (A')
       Virtual   (A') (A') (A') (A') (A") (A') (A") (A') (A') (A')
                 (A') (A') (A") (A') (A') (A") (A') (A") (A') (A")
                 (A') (A') (A") (A') (A') (A") (A') (A") (A') (A')
                 (A') (A') (A') (A') (A") (A') (A") (A") (A') (A')
                 (A') (A') (A') (A") (A') (A") (A') (A') (A") (A')
                 (A") (A') (A') (A") (A') (A") (A') (A') (A') (A")
                 (A') (A') (A') (A") (A') (A") (A')
 Beta  Orbitals:
       Occupied  (A')
       Virtual   (A') (A') (A') (A") (A') (A') (A') (A') (A") (A')
                 (A') (A') (A") (A') (A') (A") (A') (A") (A') (A')
                 (A") (A') (A') (A') (A') (A") (A') (A") (A') (A')
                 (A') (A") (A') (A") (A') (A') (A") (A') (A") (A')
                 (A') (A') (A') (A') (A") (A') (A") (A') (A') (A")
                 (A') (A') (A") (A') (A") (A') (A') (A") (A') (A")
                 (A') (A') (A') (A") (A') (A') (A") (A')
 The electronic state is 2-A'.
 Alpha  occ. eigenvalues --   -0.40625  -0.40623
 Alpha virt. eigenvalues --    0.05109   0.06189   0.13054   0.19394   0.19395
 Alpha virt. eigenvalues --    0.19396   0.19397   0.19408   0.20347   0.41682
 Alpha virt. eigenvalues --    0.42516   0.50454   0.50473   0.50608   0.52775
 Alpha virt. eigenvalues --    0.75910   0.75910   0.75910   0.75910   0.75910
 Alpha virt. eigenvalues --    0.75911   0.75911   0.75912   0.75912   0.76002
 Alpha virt. eigenvalues --    0.89879   0.89880   0.89882   0.89885   0.89895
 Alpha virt. eigenvalues --    0.90405   1.11077   1.21839   1.21929   1.21930
 Alpha virt. eigenvalues --    1.22021   1.22137   1.58789   1.58904   1.58981
 Alpha virt. eigenvalues --    2.34768   2.35627   3.38614   3.64207   3.64207
 Alpha virt. eigenvalues --    3.64207   3.64208   3.64208   3.64210   3.64210
 Alpha virt. eigenvalues --    3.64210   3.64210   3.64250   3.79918   3.79918
 Alpha virt. eigenvalues --    3.79921   3.79922   3.79928   3.80260   4.52220
 Alpha virt. eigenvalues --    4.52452   4.52877   4.53028   4.53082   4.82494
 Alpha virt. eigenvalues --    4.82690   4.82716
  Beta  occ. eigenvalues --   -0.40623
  Beta virt. eigenvalues --    0.05880   0.12793   0.13727   0.19397   0.19495
  Beta virt. eigenvalues --    0.20250   0.42232   0.46311   0.48359   0.48361
  Beta virt. eigenvalues --    0.49274   0.49458   0.49469   0.50261   0.51067
  Beta virt. eigenvalues --    0.75910   0.75912   0.75912   0.75914   0.75995
  Beta virt. eigenvalues --    0.89882   0.89898   0.90366   1.00203   1.07922
  Beta virt. eigenvalues --    1.16492   1.16564   1.16935   1.16938   1.17248
  Beta virt. eigenvalues --    1.20511   1.20516   1.20653   1.20668   1.20979
  Beta virt. eigenvalues --    1.48053   1.48145   1.50732   1.56077   1.56092
  Beta virt. eigenvalues --    1.56402   2.35471   3.26875   3.30599   3.64210
  Beta virt. eigenvalues --    3.64210   3.64210   3.64212   3.64247   3.79921
  Beta virt. eigenvalues --    3.79945   3.80235   4.37031   4.37501   4.41050
  Beta virt. eigenvalues --    4.41055   4.41721   4.47763   4.47780   4.49440
  Beta virt. eigenvalues --    4.49954   4.52216   4.67003   4.68583   4.68696
  Beta virt. eigenvalues --    4.80023   4.80741   4.80787
          Condensed to atoms (all electrons):
               1          2          3
     1  H    1.000157  -0.000002  -0.000155
     2  H   -0.000002   1.000016  -0.000014
     3  H   -0.000155  -0.000014   1.000170
          Atomic-Atomic Spin Densities.
               1          2          3
     1  H    1.000150  -0.000003   0.000001
     2  H   -0.000003   1.000015   0.000000
     3  H    0.000001   0.000000  -1.000163
 Mulliken charges and spin densities:
               1          2
     1  H    0.000001   1.000148
     2  H    0.000000   1.000013
     3  H   -0.000001  -1.000161
 Sum of Mulliken charges =  -0.00000   1.00000
 Mulliken charges and spin densities with hydrogens summed into heavy atoms:
               1          2
 Electronic spatial extent (au):  <R**2>=            204.0430
 Charge=             -0.0000 electrons
 Dipole moment (field-independent basis, Debye):
    X=             -0.0000    Y=             -0.0000    Z=              0.0000  Tot=              0.0000
 Quadrupole moment (field-independent basis, Debye-Ang):
   XX=             -4.2647   YY=             -4.2647   ZZ=             -4.2595
   XY=              0.0042   XZ=              0.0000   YZ=             -0.0000
 Traceless Quadrupole moment (field-independent basis, Debye-Ang):
   XX=             -0.0017   YY=             -0.0018   ZZ=              0.0035
   XY=              0.0042   XZ=              0.0000   YZ=             -0.0000
 Octapole moment (field-independent basis, Debye-Ang**2):
  XXX=             -0.0211  YYY=             -0.0156  ZZZ=             -0.0000  XYY=              0.0077
  XXY=              0.0157  XXZ=              0.0000  XZZ=              0.0021  YZZ=              0.0016
  YYZ=             -0.0000  XYZ=             -0.0000
 Hexadecapole moment (field-independent basis, Debye-Ang**3):
 XXXX=           -293.2044 YYYY=           -183.3834 ZZZZ=             -6.0777 XXXY=            -41.3590
 XXXZ=              0.0000 YYYX=            -41.3839 YYYZ=              0.0000 ZZZX=              0.0000
 ZZZY=              0.0000 XXYY=            -79.3958 XXZZ=            -49.8539 YYZZ=            -31.5616
 XXYZ=              0.0000 YYXZ=              0.0000 ZZXY=            -13.7985
 N-N= 2.239342206865D-01 E-N=-3.430916582845D+00  KE= 1.484418699569D+00
 Symmetry A'   KE= 1.484418699569D+00
 Symmetry A"   KE= 6.689917442172D-31
 Symmetry A'   SP= 1.000000000000D+00
 Symmetry A"   SP= 9.431809276188D-32
                          Isotropic Fermi Contact Couplings
        Atom                 a.u.       MegaHertz       Gauss      10(-4) cm-1
     1  H(1)               0.29167    1303.73486     465.20502     434.87914
     2  H(1)               0.29165    1303.63006     465.16762     434.84418
     3  H(1)              -0.29167   -1303.73998    -465.20685    -434.88085
 --------------------------------------------------------
       Center         ----  Spin Dipole Couplings  ----
                      3XX-RR        3YY-RR        3ZZ-RR
 --------------------------------------------------------
     1   Atom        0.000001     -0.000549      0.000548
     2   Atom        0.000462     -0.000564      0.000102
     3   Atom        0.000378      0.000747     -0.001125
 --------------------------------------------------------
                        XY            XZ            YZ
 --------------------------------------------------------
     1   Atom        0.001368      0.000000     -0.000000
     2   Atom       -0.000274     -0.000000      0.000000
     3   Atom       -0.000714     -0.000000      0.000000
 --------------------------------------------------------


 ---------------------------------------------------------------------------------
              Anisotropic Spin Dipole Couplings in Principal Axis System
 ---------------------------------------------------------------------------------

       Atom             a.u.   MegaHertz   Gauss  10(-4) cm-1        Axes

              Baa    -0.0017    -0.890    -0.318    -0.297 -0.6336  0.7736  0.0000
     1 H(1)   Bbb     0.0005     0.292     0.104     0.097  0.0000  0.0000  1.0000
              Bcc     0.0011     0.598     0.213     0.200  0.7736  0.6336 -0.0000
 
              Baa    -0.0006    -0.337    -0.120    -0.113  0.2426  0.9701 -0.0000
     2 H(1)   Bbb     0.0001     0.054     0.019     0.018  0.0000  0.0000  1.0000
              Bcc     0.0005     0.283     0.101     0.094  0.9701 -0.2426 -0.0000
 
              Baa    -0.0011    -0.600    -0.214    -0.200  0.0000  0.0000  1.0000
     3 H(1)   Bbb    -0.0002    -0.093    -0.033    -0.031  0.7905  0.6124 -0.0000
              Bcc     0.0013     0.694     0.248     0.231 -0.6124  0.7905  0.0000
 

 ---------------------------------------------------------------------------------

 1\1\GINC-MSI\SP\UwB97XD\Aug-CC-pVTZ\H3(2)\MARK\18-May-2024\0\\# wb97xd
 /aug-cc-pvtz\\Title3\\0,2\H,0,6.02,5.84,3.27\H,0,-1.63,5.36,7.04\H,0,5
 .06,1.79,7.22\\Version=ES64L-G16RevA.03\State=2-A'\HF=-1.5083981\S2=1.
 749999\S2-1=0.\S2A=0.75\RMSD=7.863e-09\Dipole=-0.0000026,0.0000019,-0.
 0000005\Quadrupole=0.0017284,-0.0010159,-0.0007125,-0.0005219,0.000830
 9,0.0033682\PG=CS [SG(H3)]\\@


 A great many people think they are thinking when they
 are merely rearranging their prejudices.
                               -- William James
 Job cpu time:       0 days  0 hours  0 minutes  4.4 seconds.
 Elapsed time:       0 days  0 hours  0 minutes  4.4 seconds.
 File lengths (MBytes):  RWF=     10 Int=      0 D2E=      0 Chk=      1 Scr=      1
 Normal termination of Gaussian 16 at Sat May 18 08:00:34 2024.
