 Entering Gaussian System, Link 0=g16
 Input=inputFiles/Test1.com
 Output=inputFiles/Test1.log
 Initial command:
 /home/mark/gaussian/g16/l1.exe "/home/mark/gaussian/scratch/Gau-1620.inp" -scrdir="/home/mark/gaussian/scratch/"
 Entering Link 1 = /home/mark/gaussian/g16/l1.exe PID=      1622.
  
 Copyright (c) 1988,1990,1992,1993,1995,1998,2003,2009,2016,
            Gaussian, Inc.  All Rights Reserved.
  
 This is part of the Gaussian(R) 16 program.  It is based on
 the Gaussian(R) 09 system (copyright 2009, Gaussian, Inc.),
 the Gaussian(R) 03 system (copyright 2003, Gaussian, Inc.),
 the Gaussian(R) 98 system (copyright 1998, Gaussian, Inc.),
 the Gaussian(R) 94 system (copyright 1995, Gaussian, Inc.),
 the Gaussian 92(TM) system (copyright 1992, Gaussian, Inc.),
 the Gaussian 90(TM) system (copyright 1990, Gaussian, Inc.),
 the Gaussian 88(TM) system (copyright 1988, Gaussian, Inc.),
 the Gaussian 86(TM) system (copyright 1986, Carnegie Mellon
 University), and the Gaussian 82(TM) system (copyright 1983,
 Carnegie Mellon University). Gaussian is a federally registered
 trademark of Gaussian, Inc.
  
 This software contains proprietary and confidential information,
 including trade secrets, belonging to Gaussian, Inc.
  
 This software is provided under written license and may be
 used, copied, transmitted, or stored only in accord with that
 written license.
  
 The following legend is applicable only to US Government
 contracts under FAR:
  
                    RESTRICTED RIGHTS LEGEND
  
 Use, reproduction and disclosure by the US Government is
 subject to restrictions as set forth in subparagraphs (a)
 and (c) of the Commercial Computer Software - Restricted
 Rights clause in FAR 52.227-19.
  
 Gaussian, Inc.
 340 Quinnipiac St., Bldg. 40, Wallingford CT 06492
  
  
 ---------------------------------------------------------------
 Warning -- This program may not be used in any manner that
 competes with the business of Gaussian, Inc. or will provide
 assistance to any competitor of Gaussian, Inc.  The licensee
 of this program is prohibited from giving any competitor of
 Gaussian, Inc. access to this program.  By using this program,
 the user acknowledges that Gaussian, Inc. is engaged in the
 business of creating and licensing software in the field of
 computational chemistry and represents and warrants to the
 licensee that it is not a competitor of Gaussian, Inc. and that
 it will not use this program in any manner prohibited above.
 ---------------------------------------------------------------
  

 Cite this work as:
 Gaussian 16, Revision A.03,
 M. J. Frisch, G. W. Trucks, H. B. Schlegel, G. E. Scuseria, 
 M. A. Robb, J. R. Cheeseman, G. Scalmani, V. Barone, 
 G. A. Petersson, H. Nakatsuji, X. Li, M. Caricato, A. V. Marenich, 
 J. Bloino, B. G. Janesko, R. Gomperts, B. Mennucci, H. P. Hratchian, 
 J. V. Ortiz, A. F. Izmaylov, J. L. Sonnenberg, D. Williams-Young, 
 F. Ding, F. Lipparini, F. Egidi, J. Goings, B. Peng, A. Petrone, 
 T. Henderson, D. Ranasinghe, V. G. Zakrzewski, J. Gao, N. Rega, 
 G. Zheng, W. Liang, M. Hada, M. Ehara, K. Toyota, R. Fukuda, 
 J. Hasegawa, M. Ishida, T. Nakajima, Y. Honda, O. Kitao, H. Nakai, 
 T. Vreven, K. Throssell, J. A. Montgomery, Jr., J. E. Peralta, 
 F. Ogliaro, M. J. Bearpark, J. J. Heyd, E. N. Brothers, K. N. Kudin, 
 V. N. Staroverov, T. A. Keith, R. Kobayashi, J. Normand, 
 K. Raghavachari, A. P. Rendell, J. C. Burant, S. S. Iyengar, 
 J. Tomasi, M. Cossi, J. M. Millam, M. Klene, C. Adamo, R. Cammi, 
 J. W. Ochterski, R. L. Martin, K. Morokuma, O. Farkas, 
 J. B. Foresman, and D. J. Fox, Gaussian, Inc., Wallingford CT, 2016.
 
 ******************************************
 Gaussian 16:  ES64L-G16RevA.03 25-Dec-2016
                18-May-2024 
 ******************************************
 %NProcShared=1
 Will use up to    1 processors via shared memory.
 %chk=inputFiles/test1.chk
 --------------------
 # wb97xd/aug-cc-pvtz
 --------------------
 1/38=1,172=1/1;
 2/12=2,17=6,18=5,40=1/2;
 3/5=16,6=1,7=10,11=2,25=1,30=1,74=-58/1,2,3;
 4//1;
 5/5=2,38=5/2;
 6/7=2,8=2,9=2,10=2,28=1/1;
 99/5=1,9=1/99;
 ------
 Title1
 ------
 Symbolic Z-matrix:
 Charge =  0 Multiplicity = 2
 H                     7.36      7.14      3.99 
 H                    -1.99      6.56      8.61 
 H                     6.18      2.19      8.83 
 
                          Input orientation:                          
 ---------------------------------------------------------------------
 Center     Atomic      Atomic             Coordinates (Angstroms)
 Number     Number       Type             X           Y           Z
 ---------------------------------------------------------------------
      1          1           0        7.360000    7.140000    3.990000
      2          1           0       -1.990000    6.560000    8.610000
      3          1           0        6.180000    2.190000    8.830000
 ---------------------------------------------------------------------
                    Distance matrix (angstroms):
                    1          2          3
     1  H    0.000000
     2  H   10.445253   0.000000
     3  H    7.022856   9.267912   0.000000
 Stoichiometry    H3(2)
 Framework group  CS[SG(H3)]
 Deg. of freedom     3
 Full point group                 CS      NOp   2
 Largest Abelian subgroup         CS      NOp   2
 Largest concise Abelian subgroup C1      NOp   1
                         Standard orientation:                         
 ---------------------------------------------------------------------
 Center     Atomic      Atomic             Coordinates (Angstroms)
 Number     Number       Type             X           Y           Z
 ---------------------------------------------------------------------
      1          1           0        5.020254   -0.677155   -0.000000
      2          1           0       -5.020254   -3.556652   -0.000000
      3          1           0       -0.000000    4.233807    0.000000
 ---------------------------------------------------------------------
 Rotational constants (GHZ):          21.5044128           8.6278338           6.1574068
 Standard basis: Aug-CC-pVTZ (5D, 7F)
 There are    54 symmetry adapted cartesian basis functions of A'  symmetry.
 There are    21 symmetry adapted cartesian basis functions of A"  symmetry.
 There are    48 symmetry adapted basis functions of A'  symmetry.
 There are    21 symmetry adapted basis functions of A"  symmetry.
    69 basis functions,    81 primitive gaussians,    75 cartesian basis functions
     2 alpha electrons        1 beta electrons
       nuclear repulsion energy         0.1831104808 Hartrees.
 NAtoms=    3 NActive=    3 NUniq=    3 SFac= 1.00D+00 NAtFMM=   60 NAOKFM=F Big=F
 Integral buffers will be    131072 words long.
 Raffenetti 2 integral format.
 Two-electron integral symmetry is turned on.
 Nuclear repulsion after empirical dispersion term =        0.1831099111 Hartrees.
 One-electron integrals computed using PRISM.
 NBasis=    69 RedAO= T EigKep=  6.41D-02  NBF=    48    21
 NBsUse=    69 1.00D-06 EigRej= -1.00D+00 NBFU=    48    21
 ExpMin= 2.53D-02 ExpMax= 3.39D+01 ExpMxC= 3.39D+01 IAcc=3 IRadAn=         5 AccDes= 0.00D+00
 Harris functional with IExCor= 4639 and IRadAn=       5 diagonalized for initial guess.
 HarFok:  IExCor= 4639 AccDes= 0.00D+00 IRadAn=         5 IDoV= 1 UseB2=F ITyADJ=14
 ICtDFT=  3500011 ScaDFX=  1.000000  1.000000  1.000000  1.000000
 FoFCou: FMM=F IPFlag=           0 FMFlag=      100000 FMFlg1=           0
         NFxFlg=           0 DoJE=T BraDBF=F KetDBF=T FulRan=T
         wScrn=  0.000000 ICntrl=       500 IOpCl=  0 I1Cent=   200000004 NGrid=           0
         NMat0=    1 NMatS0=      1 NMatT0=    0 NMatD0=    1 NMtDS0=    0 NMtDT0=    0
 Petite list used in FoFCou.
 Initial guess orbital symmetries:
 Alpha Orbitals:
       Occupied  (A') (A')
       Virtual   (A') (A') (A') (A') (A') (A") (A') (A") (A') (A')
                 (A") (A') (A') (A') (A') (A') (A') (A") (A") (A')
                 (A') (A') (A') (A') (A") (A') (A") (A") (A") (A')
                 (A') (A') (A") (A') (A") (A') (A') (A") (A') (A')
                 (A') (A') (A') (A') (A') (A') (A') (A') (A") (A')
                 (A") (A") (A") (A') (A") (A") (A') (A') (A') (A")
                 (A') (A") (A') (A') (A") (A') (A')
 Beta  Orbitals:
       Occupied  (A')
       Virtual   (A') (A') (A') (A') (A') (A') (A") (A') (A") (A')
                 (A') (A") (A') (A') (A') (A') (A') (A') (A") (A")
                 (A') (A') (A') (A') (A') (A") (A') (A") (A") (A")
                 (A') (A') (A') (A") (A') (A") (A') (A') (A") (A')
                 (A') (A') (A') (A') (A') (A') (A') (A') (A') (A")
                 (A') (A") (A") (A") (A') (A") (A") (A') (A') (A')
                 (A") (A') (A") (A') (A') (A") (A') (A')
 The electronic state of the initial guess is 2-A'.
 Initial guess <Sx>= 0.0000 <Sy>= 0.0000 <Sz>= 0.5000 <S**2>= 0.7500 S= 0.5000
 Keep R1 and R2 ints in memory in symmetry-blocked form, NReq=8839149.
 Requested convergence on RMS density matrix=1.00D-08 within 128 cycles.
 Requested convergence on MAX density matrix=1.00D-06.
 Requested convergence on             energy=1.00D-06.
 No special actions if energy rises.
 Rare condition: small coef for last iteration:  0.000D+00
 SCF Done:  E(UwB97XD) =  -1.50840884489     A.U. after   16 cycles
            NFock= 16  Conv=0.45D-09     -V/T= 2.0162
 <Sx>= 0.0000 <Sy>= 0.0000 <Sz>= 0.5000 <S**2>= 1.7500 S= 0.9142
 <L.S>= 0.000000000000E+00
 Annihilation of the first spin contaminant:
 S**2 before annihilation     1.7500,   after     0.7500

 **********************************************************************

            Population analysis using the SCF density.

 **********************************************************************

 Orbital symmetries:
 Alpha Orbitals:
       Occupied  (A') (A')
       Virtual   (A') (A') (A') (A") (A') (A") (A') (A') (A') (A')
                 (A') (A') (A") (A') (A') (A') (A") (A') (A') (A')
                 (A") (A') (A") (A") (A') (A") (A') (A") (A') (A')
                 (A') (A') (A") (A') (A") (A') (A') (A") (A') (A')
                 (A') (A') (A') (A') (A") (A') (A') (A") (A') (A')
                 (A") (A") (A') (A") (A') (A') (A") (A') (A') (A')
                 (A") (A') (A") (A') (A') (A") (A')
 Beta  Orbitals:
       Occupied  (A')
       Virtual   (A') (A') (A') (A") (A') (A') (A') (A') (A") (A')
                 (A') (A') (A') (A") (A') (A') (A") (A') (A") (A')
                 (A') (A") (A') (A') (A') (A') (A") (A") (A') (A')
                 (A') (A") (A') (A") (A') (A') (A") (A') (A') (A")
                 (A') (A') (A') (A') (A') (A") (A') (A") (A') (A")
                 (A') (A') (A') (A') (A") (A") (A') (A') (A") (A')
                 (A") (A') (A') (A') (A") (A") (A') (A')
 The electronic state is 2-A'.
 Alpha  occ. eigenvalues --   -0.40625  -0.40625
 Alpha virt. eigenvalues --    0.05225   0.05614   0.13470   0.19395   0.19395
 Alpha virt. eigenvalues --    0.19395   0.19396   0.19396   0.19637   0.41805
 Alpha virt. eigenvalues --    0.42098   0.50474   0.50513   0.50713   0.52256
 Alpha virt. eigenvalues --    0.75909   0.75910   0.75910   0.75910   0.75910
 Alpha virt. eigenvalues --    0.75910   0.75910   0.75910   0.75910   0.75923
 Alpha virt. eigenvalues --    0.89879   0.89879   0.89879   0.89879   0.89879
 Alpha virt. eigenvalues --    0.89956   1.10075   1.21604   1.21731   1.21805
 Alpha virt. eigenvalues --    1.21863   1.22103   1.57335   1.57399   1.58744
 Alpha virt. eigenvalues --    2.34848   2.35150   3.37669   3.64207   3.64208
 Alpha virt. eigenvalues --    3.64208   3.64208   3.64208   3.64208   3.64208
 Alpha virt. eigenvalues --    3.64208   3.64208   3.64215   3.79918   3.79918
 Alpha virt. eigenvalues --    3.79918   3.79918   3.79918   3.79983   4.50956
 Alpha virt. eigenvalues --    4.51034   4.52134   4.52616   4.52711   4.80685
 Alpha virt. eigenvalues --    4.81079   4.82984
  Beta  occ. eigenvalues --   -0.40625
  Beta virt. eigenvalues --    0.05472   0.13098   0.13433   0.19396   0.19399
  Beta virt. eigenvalues --    0.19627   0.40391   0.42025   0.44792   0.44863
  Beta virt. eigenvalues --    0.45795   0.47898   0.49213   0.49224   0.49989
  Beta virt. eigenvalues --    0.75910   0.75910   0.75910   0.75910   0.75921
  Beta virt. eigenvalues --    0.89877   0.89879   0.89932   0.92959   1.01605
  Beta virt. eigenvalues --    1.11440   1.11462   1.12758   1.12930   1.14510
  Beta virt. eigenvalues --    1.18223   1.18484   1.18488   1.18615   1.18647
  Beta virt. eigenvalues --    1.36896   1.38193   1.38245   1.50766   1.50769
  Beta virt. eigenvalues --    1.53105   2.35115   3.14923   3.28389   3.64208
  Beta virt. eigenvalues --    3.64208   3.64208   3.64208   3.64214   3.79918
  Beta virt. eigenvalues --    3.79919   3.79980   4.31779   4.32284   4.32316
  Beta virt. eigenvalues --    4.34240   4.34398   4.37897   4.38290   4.43799
  Beta virt. eigenvalues --    4.44995   4.45056   4.64578   4.66406   4.66558
  Beta virt. eigenvalues --    4.66627   4.66710   4.71066
          Condensed to atoms (all electrons):
               1          2          3
     1  H    1.000032  -0.000000  -0.000032
     2  H   -0.000000   1.000001  -0.000001
     3  H   -0.000032  -0.000001   1.000033
          Atomic-Atomic Spin Densities.
               1          2          3
     1  H    1.000030  -0.000000   0.000000
     2  H   -0.000000   1.000001   0.000000
     3  H    0.000000   0.000000  -1.000031
 Mulliken charges and spin densities:
               1          2
     1  H    0.000000   1.000030
     2  H    0.000000   1.000001
     3  H   -0.000000  -1.000031
 Sum of Mulliken charges =  -0.00000   1.00000
 Mulliken charges and spin densities with hydrogens summed into heavy atoms:
               1          2
 Electronic spatial extent (au):  <R**2>=            300.3293
 Charge=             -0.0000 electrons
 Dipole moment (field-independent basis, Debye):
    X=             -0.0000    Y=              0.0000    Z=              0.0000  Tot=              0.0000
 Quadrupole moment (field-independent basis, Debye-Ang):
   XX=             -4.2615   YY=             -4.2615   ZZ=             -4.2605
   XY=              0.0009   XZ=              0.0000   YZ=             -0.0000
 Traceless Quadrupole moment (field-independent basis, Debye-Ang):
   XX=             -0.0003   YY=             -0.0003   ZZ=              0.0007
   XY=              0.0009   XZ=              0.0000   YZ=             -0.0000
 Octapole moment (field-independent basis, Debye-Ang**2):
  XXX=             -0.0067  YYY=             -0.0048  ZZZ=              0.0000  XYY=              0.0014
  XXY=              0.0035  XXZ=              0.0000  XZZ=              0.0001  YZZ=              0.0001
  YYZ=             -0.0000  XYZ=              0.0000
 Hexadecapole moment (field-independent basis, Debye-Ang**3):
 XXXX=           -435.6464 YYYY=           -270.5546 ZZZZ=             -6.0838 XXXY=            -61.5747
 XXXZ=             -0.0000 YYYX=            -61.5827 YYYZ=             -0.0000 ZZZX=             -0.0000
 ZZZY=             -0.0000 XXYY=           -117.6880 XXZZ=            -73.6141 YYZZ=            -46.1021
 XXYZ=             -0.0000 YYXZ=             -0.0000 ZZXY=            -20.5281
 N-N= 1.831099111052D-01 E-N=-3.349154458254D+00  KE= 1.484306047980D+00
 Symmetry A'   KE= 1.484306047980D+00
 Symmetry A"   KE= 1.378685891023D-30
 Symmetry A'   SP= 1.000000000000D+00
 Symmetry A"   SP= 1.943875062883D-31
                          Isotropic Fermi Contact Couplings
        Atom                 a.u.       MegaHertz       Gauss      10(-4) cm-1
     1  H(1)               0.29165    1303.63820     465.17053     434.84690
     2  H(1)               0.29165    1303.63300     465.16867     434.84516
     3  H(1)              -0.29165   -1303.63841    -465.17060    -434.84697
 --------------------------------------------------------
       Center         ----  Spin Dipole Couplings  ----
                      3XX-RR        3YY-RR        3ZZ-RR
 --------------------------------------------------------
     1   Atom        0.000002     -0.000300      0.000298
     2   Atom        0.000253     -0.000309      0.000056
     3   Atom        0.000206      0.000408     -0.000614
 --------------------------------------------------------
                        XY            XZ            YZ
 --------------------------------------------------------
     1   Atom        0.000745      0.000000     -0.000000
     2   Atom       -0.000151     -0.000000     -0.000000
     3   Atom       -0.000388     -0.000000      0.000000
 --------------------------------------------------------


 ---------------------------------------------------------------------------------
              Anisotropic Spin Dipole Couplings in Principal Axis System
 ---------------------------------------------------------------------------------

       Atom             a.u.   MegaHertz   Gauss  10(-4) cm-1        Axes

              Baa    -0.0009    -0.485    -0.173    -0.162 -0.6329  0.7742  0.0000
     1 H(1)   Bbb     0.0003     0.159     0.057     0.053  0.0000 -0.0000  1.0000
              Bcc     0.0006     0.326     0.116     0.109  0.7742  0.6329  0.0000
 
              Baa    -0.0003    -0.185    -0.066    -0.062  0.2441  0.9697  0.0000
     2 H(1)   Bbb     0.0001     0.030     0.011     0.010  0.0000 -0.0000  1.0000
              Bcc     0.0003     0.155     0.055     0.052  0.9697 -0.2441 -0.0000
 
              Baa    -0.0006    -0.328    -0.117    -0.109  0.0000 -0.0000  1.0000
     3 H(1)   Bbb    -0.0001    -0.050    -0.018    -0.017  0.7914  0.6113  0.0000
              Bcc     0.0007     0.378     0.135     0.126 -0.6113  0.7914  0.0000
 

 ---------------------------------------------------------------------------------

 1\1\GINC-MSI\SP\UwB97XD\Aug-CC-pVTZ\H3(2)\MARK\18-May-2024\0\\# wb97xd
 /aug-cc-pvtz\\Title1\\0,2\H,0,7.36,7.14,3.99\H,0,-1.99,6.56,8.61\H,0,6
 .18,2.19,8.83\\Version=ES64L-G16RevA.03\State=2-A'\HF=-1.5084088\S2=1.
 75\S2-1=0.\S2A=0.75\RMSD=4.485e-10\Dipole=0.,0.,0.\Quadrupole=0.000375
 8,-0.0002149,-0.0001609,-0.0001206,0.0001646,0.0006864\PG=CS [SG(H3)]\
 \@


 I MET A TRAVELLER FROM AN ANTIQUE LAND
 WHO SAID... TWO VAST AND TRUNKLESS LEGS OF STONE
 STAND IN THE DESERT..... NEAR THEM,  ON THE SAND,
 HALF SUNK,  A SHATTERED VISAGE LIES,  WHOSE FROWN,
 AND WRINKLED LIP,  AND SNEER OF COLD COMMAND
 TELL THAT ITS SCULPTOR WELL THOSE PASSIONS READ
 WHICH YET SURVIVE,  STAMPED ON THESE LIFELESS THINGS
 THE HAND THAT MOCKED THEM,  AND THE HEART THAT FED-
 AND ON THE PEDESTAL THESE WORDS APPEAR 
 MY NAME IS OZYMANDIAS, KING OF KINGS--   
 LOOK ON MY WORKS YE MIGHTY AND DESPAIR. 
 NOTHING BESIDE REMAINS,  ROUND THE DECAY 
 OF THAT COLOSSAL WRECK,  BOUNDLESS AND BARE
 THE LONE AND LEVEL SANDS STRETCH FAR AWAY.
                                    SHELLEY
 Job cpu time:       0 days  0 hours  0 minutes  3.9 seconds.
 Elapsed time:       0 days  0 hours  0 minutes  3.8 seconds.
 File lengths (MBytes):  RWF=     10 Int=      0 D2E=      0 Chk=      1 Scr=      1
 Normal termination of Gaussian 16 at Sat May 18 08:00:26 2024.
