 Entering Link 1 = C:\G09W\l1.exe PID=     13968.
  
 Copyright (c) 1988,1990,1992,1993,1995,1998,2003,2009, Gaussian, Inc.
                  All Rights Reserved.
  
 This is part of the Gaussian(R) 09 program.  It is based on
 the Gaussian(R) 03 system (copyright 2003, Gaussian, Inc.),
 the Gaussian(R) 98 system (copyright 1998, Gaussian, Inc.),
 the Gaussian(R) 94 system (copyright 1995, Gaussian, Inc.),
 the Gaussian 92(TM) system (copyright 1992, Gaussian, Inc.),
 the Gaussian 90(TM) system (copyright 1990, Gaussian, Inc.),
 the Gaussian 88(TM) system (copyright 1988, Gaussian, Inc.),
 the Gaussian 86(TM) system (copyright 1986, Carnegie Mellon
 University), and the Gaussian 82(TM) system (copyright 1983,
 Carnegie Mellon University). Gaussian is a federally registered
 trademark of Gaussian, Inc.
  
 This software contains proprietary and confidential information,
 including trade secrets, belonging to Gaussian, Inc.
  
 This software is provided under written license and may be
 used, copied, transmitted, or stored only in accord with that
 written license.
  
 The following legend is applicable only to US Government
 contracts under FAR:
  
                    RESTRICTED RIGHTS LEGEND
  
 Use, reproduction and disclosure by the US Government is
 subject to restrictions as set forth in subparagraphs (a)
 and (c) of the Commercial Computer Software - Restricted
 Rights clause in FAR 52.227-19.
  
 Gaussian, Inc.
 340 Quinnipiac St., Bldg. 40, Wallingford CT 06492
  
  
 ---------------------------------------------------------------
 Warning -- This program may not be used in any manner that
 competes with the business of Gaussian, Inc. or will provide
 assistance to any competitor of Gaussian, Inc.  The licensee
 of this program is prohibited from giving any competitor of
 Gaussian, Inc. access to this program.  By using this program,
 the user acknowledges that Gaussian, Inc. is engaged in the
 business of creating and licensing software in the field of
 computational chemistry and represents and warrants to the
 licensee that it is not a competitor of Gaussian, Inc. and that
 it will not use this program in any manner prohibited above.
 ---------------------------------------------------------------
  

 Cite this work as:
 Gaussian 09, Revision A.02,
 M. J. Frisch, G. W. Trucks, H. B. Schlegel, G. E. Scuseria, 
 M. A. Robb, J. R. Cheeseman, G. Scalmani, V. Barone, B. Mennucci, 
 G. A. Petersson, H. Nakatsuji, M. Caricato, X. Li, H. P. Hratchian, 
 A. F. Izmaylov, J. Bloino, G. Zheng, J. L. Sonnenberg, M. Hada, 
 M. Ehara, K. Toyota, R. Fukuda, J. Hasegawa, M. Ishida, T. Nakajima, 
 Y. Honda, O. Kitao, H. Nakai, T. Vreven, J. A. Montgomery, Jr., 
 J. E. Peralta, F. Ogliaro, M. Bearpark, J. J. Heyd, E. Brothers, 
 K. N. Kudin, V. N. Staroverov, R. Kobayashi, J. Normand, 
 K. Raghavachari, A. Rendell, J. C. Burant, S. S. Iyengar, J. Tomasi, 
 M. Cossi, N. Rega, J. M. Millam, M. Klene, J. E. Knox, J. B. Cross, 
 V. Bakken, C. Adamo, J. Jaramillo, R. Gomperts, R. E. Stratmann, 
 O. Yazyev, A. J. Austin, R. Cammi, C. Pomelli, J. W. Ochterski, 
 R. L. Martin, K. Morokuma, V. G. Zakrzewski, G. A. Voth, 
 P. Salvador, J. J. Dannenberg, S. Dapprich, A. D. Daniels, 
 O. Farkas, J. B. Foresman, J. V. Ortiz, J. Cioslowski, 
 and D. J. Fox, Gaussian, Inc., Wallingford CT, 2009.
 
 ******************************************
 Gaussian 09:  IA32W-G09RevA.02 11-Jun-2009
                19-Apr-2024 
 ******************************************
 %chk=C:\Users\Gaming\PycharmProjects\computationalChemistryProj1\inputFiles\Test
 7.chk
 --------------------------------------
 # wb97xd/aug-cc-pvtz geom=connectivity
 --------------------------------------
 1/38=1,57=2/1;
 2/12=2,17=6,18=5,40=1/2;
 3/5=16,6=1,7=10,11=2,16=1,25=1,30=1,74=-58/1,2,3;
 4//1;
 5/5=2,38=5/2;
 6/7=2,8=2,9=2,10=2,28=1/1;
 99/5=1,9=1/99;
 ------
 Title7
 ------
 Symbolic Z-matrix:
 Charge =  0 Multiplicity = 3
 H                     3.5       0.        0. 
 H                     3.96526   1.54403   0. 
 
                          Input orientation:                          
 ---------------------------------------------------------------------
 Center     Atomic      Atomic             Coordinates (Angstroms)
 Number     Number       Type             X           Y           Z
 ---------------------------------------------------------------------
      1          1           0        3.500000    0.000000    0.000000
      2          1           0        3.965260    1.544034    0.000000
 ---------------------------------------------------------------------
 Stoichiometry    H2(3)
 Framework group  D*H[C*(H.H)]
 Deg. of freedom     1
 Full point group                 D*H     NOp   8
 Largest Abelian subgroup         D2H     NOp   8
 Largest concise Abelian subgroup C2      NOp   2
                         Standard orientation:                         
 ---------------------------------------------------------------------
 Center     Atomic      Atomic             Coordinates (Angstroms)
 Number     Number       Type             X           Y           Z
 ---------------------------------------------------------------------
      1          1           0        0.000000    0.000000    0.806304
      2          1           0        0.000000    0.000000   -0.806304
 ---------------------------------------------------------------------
 Rotational constants (GHZ):      0.0000000    385.6596010    385.6596010
 Standard basis: Aug-CC-pVTZ (5D, 7F)
 There are    11 symmetry adapted basis functions of AG  symmetry.
 There are     2 symmetry adapted basis functions of B1G symmetry.
 There are     5 symmetry adapted basis functions of B2G symmetry.
 There are     5 symmetry adapted basis functions of B3G symmetry.
 There are     2 symmetry adapted basis functions of AU  symmetry.
 There are    11 symmetry adapted basis functions of B1U symmetry.
 There are     5 symmetry adapted basis functions of B2U symmetry.
 There are     5 symmetry adapted basis functions of B3U symmetry.
 Integral buffers will be    262144 words long.
 Raffenetti 2 integral format.
 Two-electron integral symmetry is turned on.
    46 basis functions,    54 primitive gaussians,    50 cartesian basis functions
     2 alpha electrons        0 beta electrons
       nuclear repulsion energy         0.3281498277 Hartrees.
 NAtoms=    2 NActive=    2 NUniq=    1 SFac= 3.00D+00 NAtFMM=   80 NAOKFM=F Big=F
 Nuclear repulsion after empirical dispersion term =        0.3281125883 Hartrees.
 One-electron integrals computed using PRISM.
 NBasis=    46 RedAO= T  NBF=    11     2     5     5     2    11     5     5
 NBsUse=    46 1.00D-06 NBFU=    11     2     5     5     2    11     5     5
 Harris functional with IExCor= 4639 diagonalized for initial guess.
 ExpMin= 2.53D-02 ExpMax= 3.39D+01 ExpMxC= 3.39D+01 IAcc=3 IRadAn=         0 AccDes= 0.00D+00
 HarFok:  IExCor= 4639 AccDes= 0.00D+00 IRadAn=         0 IDoV= 1
 ScaDFX=  1.000000  1.000000  1.000000  1.000000
 FoFCou: FMM=F IPFlag=           0 FMFlag=      100000 FMFlg1=           0
         NFxFlg=           0 DoJE=T BraDBF=F KetDBF=T FulRan=T
         Omega=  0.000000  0.000000  1.000000  0.000000  0.000000 ICntrl=     500 IOpCl=  0
         NMat0=    1 NMatS0=    1 NMatT0=    0 NMatD0=    1 NMtDS0=    0 NMtDT0=    0
         I1Cent=           4 NGrid=           0.
 Petite list used in FoFCou.
 Initial guess orbital symmetries:
 Alpha Orbitals:
       Occupied  (SGG) (SGU)
       Virtual   (SGG) (SGU) (PIU) (PIU) (SGG) (PIG) (PIG) (SGU)
                 (SGG) (SGU) (DLTG) (DLTG) (PIU) (PIU) (SGG) (DLTU)
                 (DLTU) (PIG) (PIG) (SGU) (PIU) (PIU) (SGG) (PIG)
                 (PIG) (SGU) (SGG) (SGU) (SGG) (PIU) (PIU) (DLTG)
                 (DLTG) (DLTU) (DLTU) (PIU) (PIU) (PIG) (PIG) (PIG)
                 (PIG) (SGG) (SGU) (SGU)
 Beta  Orbitals:
       Virtual   (SGG) (SGU) (SGG) (SGU) (PIU) (PIU) (SGG) (PIG)
                 (PIG) (SGU) (SGG) (SGU) (DLTG) (DLTG) (PIU) (PIU)
                 (SGG) (DLTU) (DLTU) (PIG) (PIG) (SGU) (PIU) (PIU)
                 (SGG) (PIG) (PIG) (SGU) (SGG) (SGU) (SGG) (PIU)
                 (PIU) (DLTG) (DLTG) (DLTU) (DLTU) (PIU) (PIU)
                 (PIG) (PIG) (PIG) (PIG) (SGG) (SGU) (SGU)
 The electronic state of the initial guess is 3-SGU.
 Initial guess <Sx>= 0.0000 <Sy>= 0.0000 <Sz>= 1.0000 <S**2>= 2.0000 S= 1.0000
 Requested convergence on RMS density matrix=1.00D-08 within 128 cycles.
 Requested convergence on MAX density matrix=1.00D-06.
 Requested convergence on             energy=1.00D-06.
 No special actions if energy rises.
 FoFJK:  IHMeth= 1 ICntrl=     0 DoSepK=T KAlg= 1 I1Cent= 0 FoldK=F
 FoFJK:  IHMeth= 1 ICntrl=     0 DoSepK=T KAlg= 1 I1Cent= 0 FoldK=F
 FoFJK:  IHMeth= 1 ICntrl=     0 DoSepK=T KAlg= 1 I1Cent= 0 FoldK=F
 FoFJK:  IHMeth= 1 ICntrl=     0 DoSepK=T KAlg= 1 I1Cent= 0 FoldK=F
 FoFJK:  IHMeth= 1 ICntrl=     0 DoSepK=T KAlg= 1 I1Cent= 0 FoldK=F
 FoFJK:  IHMeth= 1 ICntrl=     0 DoSepK=T KAlg= 1 I1Cent= 0 FoldK=F
 FoFJK:  IHMeth= 1 ICntrl=     0 DoSepK=T KAlg= 1 I1Cent= 0 FoldK=F
 FoFJK:  IHMeth= 1 ICntrl=     0 DoSepK=T KAlg= 1 I1Cent= 0 FoldK=F
 FoFJK:  IHMeth= 1 ICntrl=     0 DoSepK=T KAlg= 1 I1Cent= 0 FoldK=F
 SCF Done:  E(UwB97XD) = -0.976330696142     A.U. after    9 cycles
             Convg  =    0.2009D-08             -V/T =  1.9111
 <Sx>= 0.0000 <Sy>= 0.0000 <Sz>= 1.0000 <S**2>= 2.0000 S= 1.0000
 <L.S>= 0.000000000000E+00
 Annihilation of the first spin contaminant:
 S**2 before annihilation     2.0000,   after     2.0000

 **********************************************************************

            Population analysis using the SCF density.

 **********************************************************************

 Orbital symmetries:
 Alpha Orbitals:
       Occupied  (SGG) (SGU)
       Virtual   (SGG) (SGU) (PIU) (PIU) (SGG) (PIG) (PIG) (SGU)
                 (SGG) (SGU) (DLTG) (DLTG) (PIU) (PIU) (SGG) (DLTU)
                 (DLTU) (PIG) (PIG) (SGU) (PIU) (PIU) (SGG) (PIG)
                 (PIG) (SGU) (SGG) (SGU) (SGG) (PIU) (PIU) (DLTG)
                 (DLTG) (DLTU) (DLTU) (PIU) (PIU) (PIG) (PIG) (PIG)
                 (PIG) (SGG) (SGU) (SGU)
 Beta  Orbitals:
       Virtual   (SGG) (SGU) (SGG) (SGU) (PIU) (PIU) (SGG) (PIG)
                 (PIG) (SGU) (SGG) (SGU) (DLTG) (DLTG) (PIU) (PIU)
                 (SGG) (DLTU) (DLTU) (PIG) (PIG) (SGU) (PIU) (PIU)
                 (SGG) (PIG) (PIG) (SGU) (SGG) (SGU) (SGG) (PIU)
                 (PIU) (DLTG) (DLTG) (DLTU) (DLTU) (PIG) (PIG)
                 (PIU) (PIU) (PIG) (PIG) (SGU) (SGG) (SGU)
 The electronic state is 3-SGU.
 Alpha  occ. eigenvalues --   -0.49083  -0.32064
 Alpha virt. eigenvalues --    0.05099   0.06399   0.16229   0.16229   0.25236
 Alpha virt. eigenvalues --    0.27102   0.27102   0.31149   0.42774   0.51919
 Alpha virt. eigenvalues --    0.68709   0.68710   0.74195   0.74195   0.80873
 Alpha virt. eigenvalues --    0.88121   0.88122   0.88566   0.88566   0.90825
 Alpha virt. eigenvalues --    0.92120   0.92120   1.14765   1.22610   1.22610
 Alpha virt. eigenvalues --    1.57905   2.33685   2.71569   3.42090   3.56448
 Alpha virt. eigenvalues --    3.56448   3.61897   3.61898   3.67429   3.67429
 Alpha virt. eigenvalues --    3.78922   3.78922   3.83328   3.83328   3.90401
 Alpha virt. eigenvalues --    3.90401   4.05406   4.07376   4.72852
  Beta virt. eigenvalues --   -0.12643   0.03000   0.12580   0.13715   0.21480
  Beta virt. eigenvalues --    0.21480   0.29930   0.32903   0.32903   0.38229
  Beta virt. eigenvalues --    0.50243   0.60681   0.70756   0.70757   0.76759
  Beta virt. eigenvalues --    0.76759   0.86973   0.90590   0.90593   0.93794
  Beta virt. eigenvalues --    0.93794   0.94387   0.96173   0.96173   1.17310
  Beta virt. eigenvalues --    1.25579   1.25579   1.64960   2.50304   2.86132
  Beta virt. eigenvalues --    3.48445   3.63143   3.63143   3.68608   3.68608
  Beta virt. eigenvalues --    3.74213   3.74214   3.90399   3.90399   3.92168
  Beta virt. eigenvalues --    3.92168   4.03324   4.03324   4.17518   4.18267
  Beta virt. eigenvalues --    4.82601
          Condensed to atoms (all electrons):
              1          2
     1  H    1.195604  -0.195604
     2  H   -0.195604   1.195604
 Mulliken atomic charges:
              1
     1  H    0.000000
     2  H    0.000000
 Sum of Mulliken atomic charges =   0.00000
 Mulliken charges with hydrogens summed into heavy atoms:
              1
 Sum of Mulliken charges with hydrogens summed into heavy atoms =   0.00000
          Atomic-Atomic Spin Densities.
              1          2
     1  H    1.195604  -0.195604
     2  H   -0.195604   1.195604
 Mulliken atomic spin densities:
              1
     1  H    1.000000
     2  H    1.000000
 Sum of Mulliken atomic spin densities =   2.00000
 Electronic spatial extent (au):  <R**2>=             11.5464
 Charge=              0.0000 electrons
 Dipole moment (field-independent basis, Debye):
    X=              0.0000    Y=              0.0000    Z=              0.0000  Tot=              0.0000
 Quadrupole moment (field-independent basis, Debye-Ang):
   XX=             -2.6748   YY=             -2.6748   ZZ=             -3.9353
   XY=              0.0000   XZ=              0.0000   YZ=              0.0000
 Traceless Quadrupole moment (field-independent basis, Debye-Ang):
   XX=              0.4201   YY=              0.4201   ZZ=             -0.8403
   XY=              0.0000   XZ=              0.0000   YZ=              0.0000
 Octapole moment (field-independent basis, Debye-Ang**2):
  XXX=              0.0000  YYY=              0.0000  ZZZ=              0.0000  XYY=              0.0000
  XXY=              0.0000  XXZ=              0.0000  XZZ=              0.0000  YZZ=              0.0000
  YYZ=              0.0000  XYZ=              0.0000
 Hexadecapole moment (field-independent basis, Debye-Ang**3):
 XXXX=             -3.5913 YYYY=             -3.5913 ZZZZ=            -20.1583 XXXY=              0.0000
 XXXZ=              0.0000 YYYX=              0.0000 YYYZ=              0.0000 ZZZX=              0.0000
 ZZZY=              0.0000 XXYY=             -1.1971 XXZZ=             -3.7603 YYZZ=             -3.7603
 XXYZ=              0.0000 YYXZ=              0.0000 ZZXY=              0.0000
 N-N= 3.281125883138D-01 E-N=-2.660581646175D+00  KE= 1.071551421807D+00
 Symmetry AG   KE= 4.440424413211D-01
 Symmetry B1G  KE= 3.601054616972D-34
 Symmetry B2G  KE= 2.117688948084D-31
 Symmetry B3G  KE= 1.694870111534D-32
 Symmetry AU   KE= 3.562409680105D-34
 Symmetry B1U  KE= 6.275089804855D-01
 Symmetry B2U  KE= 2.301359900756D-33
 Symmetry B3U  KE= 7.060685780794D-32
                          Isotropic Fermi Contact Couplings
        Atom                 a.u.       MegaHertz       Gauss      10(-4) cm-1
     1  H(1)               0.30638     684.73248     244.32957     228.40217
     2  H(1)               0.30638     684.73248     244.32957     228.40217
 --------------------------------------------------------
       Center         ----  Spin Dipole Couplings  ----
                      3XX-RR        3YY-RR        3ZZ-RR
 --------------------------------------------------------
     1   Atom       -0.028560     -0.028560      0.057120
     2   Atom       -0.028560     -0.028560      0.057120
 --------------------------------------------------------
                        XY            XZ            YZ
 --------------------------------------------------------
     1   Atom        0.000000      0.000000      0.000000
     2   Atom        0.000000      0.000000      0.000000
 --------------------------------------------------------


 ---------------------------------------------------------------------------------
              Anisotropic Spin Dipole Couplings in Principal Axis System
 ---------------------------------------------------------------------------------

       Atom             a.u.   MegaHertz   Gauss  10(-4) cm-1        Axes

              Baa    -0.0286   -15.238    -5.437    -5.083 -0.6549  0.7557  0.0000
     1 H(1)   Bbb    -0.0286   -15.238    -5.437    -5.083  0.7557  0.6549  0.0000
              Bcc     0.0571    30.476    10.875    10.166  0.0000  0.0000  1.0000
 
              Baa    -0.0286   -15.238    -5.437    -5.083 -0.6549  0.7557  0.0000
     2 H(1)   Bbb    -0.0286   -15.238    -5.437    -5.083  0.7557  0.6549  0.0000
              Bcc     0.0571    30.476    10.875    10.166  0.0000  0.0000  1.0000
 

 ---------------------------------------------------------------------------------

 1|1|UNPC-MSI|SP|UwB97XD|Aug-CC-pVTZ|H2(3)|GAMING|19-Apr-2024|0||# wb97
 xd/aug-cc-pvtz geom=connectivity||Title7||0,3|H,0,3.5,0.,0.|H,0,3.9652
 5969,1.54403357,0.||Version=IA32W-G09RevA.02|State=3-SGU|HF=-0.9763307
 |S2=2.|S2-1=0.|S2A=2.|RMSD=2.009e-009|Dipole=0.,0.,0.|Quadrupole=0.234
 3641,-0.5467331,0.312369,-0.2588711,0.,0.|PG=D*H [C*(H1.H1)]||@


 Make no judgements where you have no compassion.
                               -- Anne McCaffrey
 Job cpu time:  0 days  0 hours  0 minutes  2.0 seconds.
 File lengths (MBytes):  RWF=      5 Int=      0 D2E=      0 Chk=      1 Scr=      1
 Normal termination of Gaussian 09 at Fri Apr 19 15:49:38 2024.
