 Entering Gaussian System, Link 0=g16
 Input=inputFiles/Test0.com
 Output=inputFiles/Test0.log
 Initial command:
 /home/mark/gaussian/g16/l1.exe "/home/mark/gaussian/scratch/Gau-1924.inp" -scrdir="/home/mark/gaussian/scratch/"
 Entering Link 1 = /home/mark/gaussian/g16/l1.exe PID=      1926.
  
 Copyright (c) 1988,1990,1992,1993,1995,1998,2003,2009,2016,
            Gaussian, Inc.  All Rights Reserved.
  
 This is part of the Gaussian(R) 16 program.  It is based on
 the Gaussian(R) 09 system (copyright 2009, Gaussian, Inc.),
 the Gaussian(R) 03 system (copyright 2003, Gaussian, Inc.),
 the Gaussian(R) 98 system (copyright 1998, Gaussian, Inc.),
 the Gaussian(R) 94 system (copyright 1995, Gaussian, Inc.),
 the Gaussian 92(TM) system (copyright 1992, Gaussian, Inc.),
 the Gaussian 90(TM) system (copyright 1990, Gaussian, Inc.),
 the Gaussian 88(TM) system (copyright 1988, Gaussian, Inc.),
 the Gaussian 86(TM) system (copyright 1986, Carnegie Mellon
 University), and the Gaussian 82(TM) system (copyright 1983,
 Carnegie Mellon University). Gaussian is a federally registered
 trademark of Gaussian, Inc.
  
 This software contains proprietary and confidential information,
 including trade secrets, belonging to Gaussian, Inc.
  
 This software is provided under written license and may be
 used, copied, transmitted, or stored only in accord with that
 written license.
  
 The following legend is applicable only to US Government
 contracts under FAR:
  
                    RESTRICTED RIGHTS LEGEND
  
 Use, reproduction and disclosure by the US Government is
 subject to restrictions as set forth in subparagraphs (a)
 and (c) of the Commercial Computer Software - Restricted
 Rights clause in FAR 52.227-19.
  
 Gaussian, Inc.
 340 Quinnipiac St., Bldg. 40, Wallingford CT 06492
  
  
 ---------------------------------------------------------------
 Warning -- This program may not be used in any manner that
 competes with the business of Gaussian, Inc. or will provide
 assistance to any competitor of Gaussian, Inc.  The licensee
 of this program is prohibited from giving any competitor of
 Gaussian, Inc. access to this program.  By using this program,
 the user acknowledges that Gaussian, Inc. is engaged in the
 business of creating and licensing software in the field of
 computational chemistry and represents and warrants to the
 licensee that it is not a competitor of Gaussian, Inc. and that
 it will not use this program in any manner prohibited above.
 ---------------------------------------------------------------
  

 Cite this work as:
 Gaussian 16, Revision A.03,
 M. J. Frisch, G. W. Trucks, H. B. Schlegel, G. E. Scuseria, 
 M. A. Robb, J. R. Cheeseman, G. Scalmani, V. Barone, 
 G. A. Petersson, H. Nakatsuji, X. Li, M. Caricato, A. V. Marenich, 
 J. Bloino, B. G. Janesko, R. Gomperts, B. Mennucci, H. P. Hratchian, 
 J. V. Ortiz, A. F. Izmaylov, J. L. Sonnenberg, D. Williams-Young, 
 F. Ding, F. Lipparini, F. Egidi, J. Goings, B. Peng, A. Petrone, 
 T. Henderson, D. Ranasinghe, V. G. Zakrzewski, J. Gao, N. Rega, 
 G. Zheng, W. Liang, M. Hada, M. Ehara, K. Toyota, R. Fukuda, 
 J. Hasegawa, M. Ishida, T. Nakajima, Y. Honda, O. Kitao, H. Nakai, 
 T. Vreven, K. Throssell, J. A. Montgomery, Jr., J. E. Peralta, 
 F. Ogliaro, M. J. Bearpark, J. J. Heyd, E. N. Brothers, K. N. Kudin, 
 V. N. Staroverov, T. A. Keith, R. Kobayashi, J. Normand, 
 K. Raghavachari, A. P. Rendell, J. C. Burant, S. S. Iyengar, 
 J. Tomasi, M. Cossi, J. M. Millam, M. Klene, C. Adamo, R. Cammi, 
 J. W. Ochterski, R. L. Martin, K. Morokuma, O. Farkas, 
 J. B. Foresman, and D. J. Fox, Gaussian, Inc., Wallingford CT, 2016.
 
 ******************************************
 Gaussian 16:  ES64L-G16RevA.03 25-Dec-2016
                18-May-2024 
 ******************************************
 %NProcShared=1
 Will use up to    1 processors via shared memory.
 %chk=inputFiles/test0.chk
 --------------------
 # wb97xd/aug-cc-pvtz
 --------------------
 1/38=1,172=1/1;
 2/12=2,17=6,18=5,40=1/2;
 3/5=16,6=1,7=10,11=2,25=1,30=1,74=-58/1,2,3;
 4//1;
 5/5=2,38=5/2;
 6/7=2,8=2,9=2,10=2,28=1/1;
 99/5=1,9=1/99;
 ------
 Title0
 ------
 Symbolic Z-matrix:
 Charge =  0 Multiplicity = 3
 O                     0.        0.06      0. 
 H                    -0.43     -0.46      0.68 
 H                     0.41     -0.52     -0.64 
 O                     4.28571   0.6391    0. 
 H                     5.24571   0.6391    0. 
 H                     3.96526   1.54403   0. 
 
                          Input orientation:                          
 ---------------------------------------------------------------------
 Center     Atomic      Atomic             Coordinates (Angstroms)
 Number     Number       Type             X           Y           Z
 ---------------------------------------------------------------------
      1          8           0        0.000000    0.060000    0.000000
      2          1           0       -0.430000   -0.460000    0.680000
      3          1           0        0.410000   -0.520000   -0.640000
      4          8           0        4.285714    0.639098    0.000000
      5          1           0        5.245714    0.639098    0.000000
      6          1           0        3.965260    1.544034    0.000000
 ---------------------------------------------------------------------
                    Distance matrix (angstroms):
                    1          2          3          4          5
     1  O    0.000000
     2  H    0.957967   0.000000
     3  H    0.956086   1.565759   0.000000
     4  O    4.324662   4.889619   4.095640   0.000000
     5  H    5.277582   5.821009   5.013705   0.960000   0.000000
     6  H    4.233868   4.878202   4.160493   0.960000   1.567952
                    6
     6  H    0.000000
 Stoichiometry    H4O2(3)
 Framework group  C1[X(H4O2)]
 Deg. of freedom    12
 Full point group                 C1      NOp   1
 Largest Abelian subgroup         C1      NOp   1
 Largest concise Abelian subgroup C1      NOp   1
                         Standard orientation:                         
 ---------------------------------------------------------------------
 Center     Atomic      Atomic             Coordinates (Angstroms)
 Number     Number       Type             X           Y           Z
 ---------------------------------------------------------------------
      1          8           0       -2.189435    0.093674   -0.038001
      2          1           0       -2.707137   -0.181826    0.719485
      3          1           0       -1.881641   -0.674845   -0.516270
      4          8           0        2.131807   -0.065497    0.027051
      5          1           0        3.077365   -0.225716    0.070058
      6          1           0        1.972440    0.856973   -0.185672
 ---------------------------------------------------------------------
 Rotational constants (GHZ):         219.2078038           2.8930919           2.8833100
 Standard basis: Aug-CC-pVTZ (5D, 7F)
 There are   210 symmetry adapted cartesian basis functions of A   symmetry.
 There are   184 symmetry adapted basis functions of A   symmetry.
   184 basis functions,   252 primitive gaussians,   210 cartesian basis functions
    11 alpha electrons        9 beta electrons
       nuclear repulsion energy        30.3069349988 Hartrees.
 NAtoms=    6 NActive=    6 NUniq=    6 SFac= 1.00D+00 NAtFMM=   60 NAOKFM=F Big=F
 Integral buffers will be    131072 words long.
 Raffenetti 2 integral format.
 Two-electron integral symmetry is turned on.
 Nuclear repulsion after empirical dispersion term =       30.3067510189 Hartrees.
 One-electron integrals computed using PRISM.
 NBasis=   184 RedAO= T EigKep=  3.39D-04  NBF=   184
 NBsUse=   184 1.00D-06 EigRej= -1.00D+00 NBFU=   184
 ExpMin= 2.53D-02 ExpMax= 1.53D+04 ExpMxC= 5.22D+02 IAcc=3 IRadAn=         5 AccDes= 0.00D+00
 Harris functional with IExCor= 4639 and IRadAn=       5 diagonalized for initial guess.
 HarFok:  IExCor= 4639 AccDes= 0.00D+00 IRadAn=         5 IDoV= 1 UseB2=F ITyADJ=14
 ICtDFT=  3500011 ScaDFX=  1.000000  1.000000  1.000000  1.000000
 FoFCou: FMM=F IPFlag=           0 FMFlag=      100000 FMFlg1=           0
         NFxFlg=           0 DoJE=T BraDBF=F KetDBF=T FulRan=T
         wScrn=  0.000000 ICntrl=       500 IOpCl=  0 I1Cent=   200000004 NGrid=           0
         NMat0=    1 NMatS0=      1 NMatT0=    0 NMatD0=    1 NMtDS0=    0 NMtDT0=    0
 Petite list used in FoFCou.
 Initial guess <Sx>= 0.0000 <Sy>= 0.0000 <Sz>= 1.0000 <S**2>= 2.0000 S= 1.0000
 Requested convergence on RMS density matrix=1.00D-08 within 128 cycles.
 Requested convergence on MAX density matrix=1.00D-06.
 Requested convergence on             energy=1.00D-06.
 No special actions if energy rises.
 SCF Done:  E(UwB97XD) =  -152.611475099     A.U. after   20 cycles
            NFock= 20  Conv=0.58D-08     -V/T= 2.0034
 <Sx>= 0.0000 <Sy>= 0.0000 <Sz>= 1.0000 <S**2>= 2.0024 S= 1.0008
 <L.S>= 0.000000000000E+00
 Annihilation of the first spin contaminant:
 S**2 before annihilation     2.0024,   after     2.0000

 **********************************************************************

            Population analysis using the SCF density.

 **********************************************************************

 Orbital symmetries:
 Alpha Orbitals:
       Occupied  (A) (A) (A) (A) (A) (A) (A) (A) (A) (A) (A)
       Virtual   (A) (A) (A) (A) (A) (A) (A) (A) (A) (A) (A) (A)
                 (A) (A) (A) (A) (A) (A) (A) (A) (A) (A) (A) (A)
                 (A) (A) (A) (A) (A) (A) (A) (A) (A) (A) (A) (A)
                 (A) (A) (A) (A) (A) (A) (A) (A) (A) (A) (A) (A)
                 (A) (A) (A) (A) (A) (A) (A) (A) (A) (A) (A) (A)
                 (A) (A) (A) (A) (A) (A) (A) (A) (A) (A) (A) (A)
                 (A) (A) (A) (A) (A) (A) (A) (A) (A) (A) (A) (A)
                 (A) (A) (A) (A) (A) (A) (A) (A) (A) (A) (A) (A)
                 (A) (A) (A) (A) (A) (A) (A) (A) (A) (A) (A) (A)
                 (A) (A) (A) (A) (A) (A) (A) (A) (A) (A) (A) (A)
                 (A) (A) (A) (A) (A) (A) (A) (A) (A) (A) (A) (A)
                 (A) (A) (A) (A) (A) (A) (A) (A) (A) (A) (A) (A)
                 (A) (A) (A) (A) (A) (A) (A) (A) (A) (A) (A) (A)
                 (A) (A) (A) (A) (A) (A) (A) (A) (A) (A) (A) (A)
                 (A) (A) (A) (A) (A)
 Beta  Orbitals:
       Occupied  (A) (A) (A) (A) (A) (A) (A) (A) (A)
       Virtual   (A) (A) (A) (A) (A) (A) (A) (A) (A) (A) (A) (A)
                 (A) (A) (A) (A) (A) (A) (A) (A) (A) (A) (A) (A)
                 (A) (A) (A) (A) (A) (A) (A) (A) (A) (A) (A) (A)
                 (A) (A) (A) (A) (A) (A) (A) (A) (A) (A) (A) (A)
                 (A) (A) (A) (A) (A) (A) (A) (A) (A) (A) (A) (A)
                 (A) (A) (A) (A) (A) (A) (A) (A) (A) (A) (A) (A)
                 (A) (A) (A) (A) (A) (A) (A) (A) (A) (A) (A) (A)
                 (A) (A) (A) (A) (A) (A) (A) (A) (A) (A) (A) (A)
                 (A) (A) (A) (A) (A) (A) (A) (A) (A) (A) (A) (A)
                 (A) (A) (A) (A) (A) (A) (A) (A) (A) (A) (A) (A)
                 (A) (A) (A) (A) (A) (A) (A) (A) (A) (A) (A) (A)
                 (A) (A) (A) (A) (A) (A) (A) (A) (A) (A) (A) (A)
                 (A) (A) (A) (A) (A) (A) (A) (A) (A) (A) (A) (A)
                 (A) (A) (A) (A) (A) (A) (A) (A) (A) (A) (A) (A)
                 (A) (A) (A) (A) (A) (A) (A)
 The electronic state is 3-A.
 Alpha  occ. eigenvalues --  -19.50977 -19.26311  -1.34648  -1.12294  -0.81795
 Alpha  occ. eigenvalues --   -0.68541  -0.68080  -0.64098  -0.48084  -0.41318
 Alpha  occ. eigenvalues --   -0.17999
 Alpha virt. eigenvalues --    0.02228   0.02704   0.04385   0.07955   0.10001
 Alpha virt. eigenvalues --    0.11325   0.11921   0.12584   0.15047   0.16581
 Alpha virt. eigenvalues --    0.17499   0.19416   0.20226   0.21652   0.22966
 Alpha virt. eigenvalues --    0.23585   0.24497   0.25467   0.28767   0.30883
 Alpha virt. eigenvalues --    0.32288   0.34558   0.34931   0.37442   0.38471
 Alpha virt. eigenvalues --    0.39256   0.41284   0.49569   0.53168   0.54732
 Alpha virt. eigenvalues --    0.58334   0.58780   0.58896   0.59280   0.64640
 Alpha virt. eigenvalues --    0.66377   0.68029   0.70220   0.70559   0.73745
 Alpha virt. eigenvalues --    0.76798   0.77544   0.78764   0.80374   0.81549
 Alpha virt. eigenvalues --    0.82353   0.83452   0.84518   0.86077   0.88194
 Alpha virt. eigenvalues --    0.88741   0.90445   0.92222   0.92629   0.93935
 Alpha virt. eigenvalues --    0.95750   0.98516   1.00541   1.01334   1.04538
 Alpha virt. eigenvalues --    1.06557   1.06898   1.08482   1.12262   1.14161
 Alpha virt. eigenvalues --    1.15131   1.19148   1.32886   1.39215   1.40314
 Alpha virt. eigenvalues --    1.43321   1.47894   1.49356   1.54385   1.59916
 Alpha virt. eigenvalues --    1.66310   1.67345   1.73976   1.82063   1.84761
 Alpha virt. eigenvalues --    1.91099   1.94757   1.98586   2.03912   2.06568
 Alpha virt. eigenvalues --    2.08312   2.11249   2.12929   2.14949   2.15522
 Alpha virt. eigenvalues --    2.18120   2.22809   2.24485   2.27087   2.29876
 Alpha virt. eigenvalues --    2.37682   2.40844   2.44410   2.52325   2.54522
 Alpha virt. eigenvalues --    2.55268   2.57379   2.61858   2.70301   2.71123
 Alpha virt. eigenvalues --    3.30710   3.40632   3.42245   3.54527   3.55107
 Alpha virt. eigenvalues --    3.69738   3.76934   3.79487   3.90879   3.92449
 Alpha virt. eigenvalues --    4.00689   4.01351   4.02661   4.06691   4.07393
 Alpha virt. eigenvalues --    4.12031   4.12817   4.14217   4.16801   4.17135
 Alpha virt. eigenvalues --    4.22777   4.23091   4.24568   4.38667   4.39348
 Alpha virt. eigenvalues --    4.51381   4.75847   4.77011   4.85793   4.86545
 Alpha virt. eigenvalues --    4.90759   4.92493   5.01657   5.02216   5.04493
 Alpha virt. eigenvalues --    5.19424   5.31083   5.43227   5.61881   5.78067
 Alpha virt. eigenvalues --    5.96948   6.10863   6.17162   6.24809   6.33011
 Alpha virt. eigenvalues --    6.46626   6.48916   6.60851   6.61098   6.66796
 Alpha virt. eigenvalues --    6.71141   6.74479   6.83156   6.85791   6.85922
 Alpha virt. eigenvalues --    6.91911   6.94611   6.96493   7.01900   7.16068
 Alpha virt. eigenvalues --    7.30252   7.35411   7.47800   7.55769   8.16271
 Alpha virt. eigenvalues --    8.35198  14.93761  15.22692
  Beta  occ. eigenvalues --  -19.48198 -19.26307  -1.25800  -1.12285  -0.78725
  Beta  occ. eigenvalues --   -0.64251  -0.64086  -0.48080  -0.41303
  Beta virt. eigenvalues --   -0.24200   0.03240   0.06461   0.08252   0.13182
  Beta virt. eigenvalues --    0.14582   0.16138   0.17084   0.17621   0.19923
  Beta virt. eigenvalues --    0.21155   0.21656   0.21862   0.22315   0.25259
  Beta virt. eigenvalues --    0.25930   0.28143   0.28941   0.32090   0.34365
  Beta virt. eigenvalues --    0.35093   0.36474   0.37290   0.39741   0.40208
  Beta virt. eigenvalues --    0.41929   0.48532   0.49650   0.51732   0.55237
  Beta virt. eigenvalues --    0.58250   0.59284   0.61765   0.63205   0.63620
  Beta virt. eigenvalues --    0.65724   0.67035   0.68437   0.69149   0.74926
  Beta virt. eigenvalues --    0.76702   0.77469   0.80416   0.81955   0.82361
  Beta virt. eigenvalues --    0.82744   0.84095   0.85702   0.86136   0.86822
  Beta virt. eigenvalues --    0.88758   0.90067   0.91172   0.94427   0.95297
  Beta virt. eigenvalues --    0.97629   0.98537   0.99849   1.00337   1.01835
  Beta virt. eigenvalues --    1.02806   1.07777   1.09181   1.11720   1.12036
  Beta virt. eigenvalues --    1.12645   1.14711   1.18261   1.20199   1.37229
  Beta virt. eigenvalues --    1.43036   1.43468   1.44178   1.48177   1.49493
  Beta virt. eigenvalues --    1.59797   1.63123   1.66478   1.68486   1.79060
  Beta virt. eigenvalues --    1.84877   1.86962   1.94632   1.95792   2.02194
  Beta virt. eigenvalues --    2.06243   2.08008   2.10407   2.13378   2.14154
  Beta virt. eigenvalues --    2.15456   2.17259   2.21093   2.23222   2.24772
  Beta virt. eigenvalues --    2.27284   2.29983   2.43246   2.43491   2.47762
  Beta virt. eigenvalues --    2.52625   2.54800   2.57401   2.60825   2.63576
  Beta virt. eigenvalues --    2.70352   2.71186   3.32535   3.40692   3.44426
  Beta virt. eigenvalues --    3.54611   3.64307   3.70328   3.76963   3.79486
  Beta virt. eigenvalues --    3.91654   3.93205   4.00702   4.01427   4.03935
  Beta virt. eigenvalues --    4.07985   4.08830   4.12841   4.13679   4.15472
  Beta virt. eigenvalues --    4.16815   4.17267   4.22834   4.23109   4.27265
  Beta virt. eigenvalues --    4.39158   4.40906   4.51403   4.77521   4.79500
  Beta virt. eigenvalues --    4.86525   4.90526   4.91529   4.93194   5.02176
  Beta virt. eigenvalues --    5.04500   5.07345   5.19430   5.32039   5.43232
  Beta virt. eigenvalues --    5.65554   5.78109   6.04364   6.17266   6.17666
  Beta virt. eigenvalues --    6.32197   6.33117   6.46662   6.57962   6.69215
  Beta virt. eigenvalues --    6.70421   6.74474   6.75003   6.78013   6.85466
  Beta virt. eigenvalues --    6.85865   6.86546   6.91928   6.94636   7.00560
  Beta virt. eigenvalues --    7.01929   7.16081   7.32140   7.38852   7.47806
  Beta virt. eigenvalues --    7.55780   8.18985   8.35208  14.99730  15.22719
          Condensed to atoms (all electrons):
               1          2          3          4          5          6
     1  O    7.840160   0.260135   0.256374  -0.000941  -0.000404  -0.000337
     2  H    0.260135   0.545519   0.014581   0.000195  -0.000014   0.000111
     3  H    0.256374   0.014581   0.553469  -0.000219  -0.001815  -0.002722
     4  O   -0.000941   0.000195  -0.000219   7.457765   0.254470   0.241106
     5  H   -0.000404  -0.000014  -0.001815   0.254470   0.649557   0.128294
     6  H   -0.000337   0.000111  -0.002722   0.241106   0.128294   0.655902
          Atomic-Atomic Spin Densities.
               1          2          3          4          5          6
     1  O    0.005893   0.005477  -0.002963  -0.000147  -0.000116  -0.001294
     2  H    0.005477  -0.008928   0.001286   0.000117   0.000005   0.000065
     3  H   -0.002963   0.001286  -0.003190  -0.000198  -0.001752  -0.002991
     4  O   -0.000147   0.000117  -0.000198   1.152203   0.080874   0.053766
     5  H   -0.000116   0.000005  -0.001752   0.080874   0.183840   0.104404
     6  H   -0.001294   0.000065  -0.002991   0.053766   0.104404   0.197119
 Mulliken charges and spin densities:
               1          2
     1  O   -0.354986   0.006850
     2  H    0.179473  -0.001979
     3  H    0.180331  -0.009809
     4  O    0.047624   1.286615
     5  H   -0.030088   0.367253
     6  H   -0.022353   0.351069
 Sum of Mulliken charges =  -0.00000   2.00000
 Mulliken charges and spin densities with hydrogens summed into heavy atoms:
               1          2
     1  O    0.004818  -0.004937
     4  O   -0.004818   2.004937
 Electronic spatial extent (au):  <R**2>=            406.0866
 Charge=             -0.0000 electrons
 Dipole moment (field-independent basis, Debye):
    X=             -1.7606    Y=             -2.2784    Z=              0.6451  Tot=              2.9507
 Quadrupole moment (field-independent basis, Debye-Ang):
   XX=            -24.3397   YY=            -19.1069   ZZ=            -16.8857
   XY=              1.5665   XZ=             -2.0275   YZ=              0.9539
 Traceless Quadrupole moment (field-independent basis, Debye-Ang):
   XX=             -4.2289   YY=              1.0039   ZZ=              3.2251
   XY=              1.5665   XZ=             -2.0275   YZ=              0.9539
 Octapole moment (field-independent basis, Debye-Ang**2):
  XXX=            -82.3158  YYY=             -9.4670  ZZZ=              2.3655  XYY=            -18.2016
  XXY=            -14.2559  XXZ=             10.9932  XZZ=            -17.4699  YZZ=             -3.2635
  YYZ=              0.3754  XYZ=             -0.1950
 Hexadecapole moment (field-independent basis, Debye-Ang**3):
 XXXX=           -808.5826 YYYY=            -68.3508 ZZZZ=            -48.9909 XXXY=            -11.3355
 XXXZ=            -24.6592 YYYX=            -15.2576 YYYZ=              2.7542 ZZZX=              0.4089
 ZZZY=              2.2079 XXYY=           -134.2278 XXZZ=           -116.7407 YYZZ=            -19.3130
 XXYZ=              3.8050 YYXZ=              1.9296 ZZXY=             -3.6338
 N-N= 3.030675101888D+01 E-N=-4.199720293385D+02  KE= 1.520894052814D+02
                          Isotropic Fermi Contact Couplings
        Atom                 a.u.       MegaHertz       Gauss      10(-4) cm-1
     1  O(17)              0.00280      -0.84894      -0.30292      -0.28318
     2  H(1)               0.00001       0.03269       0.01166       0.01090
     3  H(1)              -0.00002      -0.04588      -0.01637      -0.01530
     4  O(17)              0.77236    -234.10055     -83.53290     -78.08754
     5  H(1)               0.00185       4.13585       1.47577       1.37957
     6  H(1)               0.00118       2.62932       0.93821       0.87705
 --------------------------------------------------------
       Center         ----  Spin Dipole Couplings  ----
                      3XX-RR        3YY-RR        3ZZ-RR
 --------------------------------------------------------
     1   Atom        0.010399     -0.005436     -0.004963
     2   Atom        0.003879     -0.002062     -0.001817
     3   Atom        0.005676     -0.002586     -0.003090
     4   Atom       -1.946593     -1.698675      3.645268
     5   Atom        0.199056     -0.130960     -0.068096
     6   Atom       -0.133745      0.183817     -0.050072
 --------------------------------------------------------
                        XY            XZ            YZ
 --------------------------------------------------------
     1   Atom       -0.000499      0.001903     -0.000337
     2   Atom        0.000526     -0.000973     -0.000164
     3   Atom        0.001865      0.000929      0.000514
     4   Atom        0.235280     -0.104704      1.286351
     5   Atom       -0.078943      0.020109      0.014407
     6   Atom       -0.076138      0.016904     -0.057226
 --------------------------------------------------------


 ---------------------------------------------------------------------------------
              Anisotropic Spin Dipole Couplings in Principal Axis System
 ---------------------------------------------------------------------------------

       Atom             a.u.   MegaHertz   Gauss  10(-4) cm-1        Axes

              Baa    -0.0056     0.407     0.145     0.136 -0.0372  0.8443  0.5346
     1 O(17)  Bbb    -0.0050     0.363     0.130     0.121 -0.1205 -0.5349  0.8363
              Bcc     0.0106    -0.771    -0.275    -0.257  0.9920 -0.0333  0.1216
 
              Baa    -0.0021    -1.144    -0.408    -0.382 -0.0113  0.9074  0.4202
     2 H(1)   Bbb    -0.0019    -1.037    -0.370    -0.346  0.1863 -0.4110  0.8924
              Bcc     0.0041     2.182     0.779     0.728  0.9824  0.0883 -0.1644
 
              Baa    -0.0034    -1.824    -0.651    -0.608  0.0369 -0.5839  0.8110
     3 H(1)   Bbb    -0.0028    -1.478    -0.527    -0.493 -0.2362  0.7834  0.5749
              Bcc     0.0062     3.302     1.178     1.101  0.9710  0.2128  0.1090
 
              Baa    -2.2233   160.875    57.404    53.662 -0.6749  0.7182 -0.1695
     4 O(17)  Bbb    -1.7159   124.163    44.305    41.416  0.7379  0.6594 -0.1438
              Bcc     3.9392  -285.038  -101.709   -95.079 -0.0085  0.2221  0.9750
 
              Baa    -0.1529   -81.602   -29.118   -27.219  0.2254  0.9503 -0.2148
     5 H(1)   Bbb    -0.0650   -34.667   -12.370   -11.564 -0.0078  0.2222  0.9750
              Bcc     0.2179   116.269    41.488    38.783  0.9742 -0.2181  0.0575
 
              Baa    -0.1512   -80.681   -28.789   -26.912  0.9758  0.2146 -0.0416
     6 H(1)   Bbb    -0.0633   -33.783   -12.055   -11.269 -0.0075  0.2234  0.9747
              Bcc     0.2145   114.464    40.844    38.181 -0.2185  0.9508 -0.2196
 

 ---------------------------------------------------------------------------------

 1\1\GINC-MSI\SP\UwB97XD\Aug-CC-pVTZ\H4O2(3)\MARK\18-May-2024\0\\# wb97
 xd/aug-cc-pvtz\\Title0\\0,3\O,0,0.,0.06,0.\H,0,-0.43,-0.46,0.68\H,0,0.
 41,-0.52,-0.64\O,0,4.28571428,0.63909773,0.\H,0,5.24571428,0.63909773,
 0.\H,0,3.96525969,1.54403357,0.\\Version=ES64L-G16RevA.03\State=3-A\HF
 =-152.6114751\S2=2.002433\S2-1=0.\S2A=2.000002\RMSD=5.775e-09\Dipole=-
 0.521283,-1.0360258,0.0513413\Quadrupole=-3.5511583,0.9114739,2.639684
 4,0.7603233,-1.2003212,0.0624646\PG=C01 [X(H4O2)]\\@


 A CHEMICAL PHYSICIST MAKES PRECISE MEASUREMENTS ON IMPURE COMPOUNDS.
 A THEORETICAL PHYSICAL CHEMIST MAKES IMPRECISE
     MEASUREMENTS ON PURE COMPOUNDS.
 AN EXPERIMENTAL PHYSICAL CHEMIST MAKES IMPRECISE
     MEASUREMENTS ON IMPURE COMPOUNDS.
 Job cpu time:       0 days  0 hours  2 minutes 47.5 seconds.
 Elapsed time:       0 days  0 hours  2 minutes 48.0 seconds.
 File lengths (MBytes):  RWF=     37 Int=      0 D2E=      0 Chk=      3 Scr=      1
 Normal termination of Gaussian 16 at Sat May 18 09:59:26 2024.
