 Entering Link 1 = C:\G09W\l1.exe PID=     11828.
  
 Copyright (c) 1988,1990,1992,1993,1995,1998,2003,2009, Gaussian, Inc.
                  All Rights Reserved.
  
 This is part of the Gaussian(R) 09 program.  It is based on
 the Gaussian(R) 03 system (copyright 2003, Gaussian, Inc.),
 the Gaussian(R) 98 system (copyright 1998, Gaussian, Inc.),
 the Gaussian(R) 94 system (copyright 1995, Gaussian, Inc.),
 the Gaussian 92(TM) system (copyright 1992, Gaussian, Inc.),
 the Gaussian 90(TM) system (copyright 1990, Gaussian, Inc.),
 the Gaussian 88(TM) system (copyright 1988, Gaussian, Inc.),
 the Gaussian 86(TM) system (copyright 1986, Carnegie Mellon
 University), and the Gaussian 82(TM) system (copyright 1983,
 Carnegie Mellon University). Gaussian is a federally registered
 trademark of Gaussian, Inc.
  
 This software contains proprietary and confidential information,
 including trade secrets, belonging to Gaussian, Inc.
  
 This software is provided under written license and may be
 used, copied, transmitted, or stored only in accord with that
 written license.
  
 The following legend is applicable only to US Government
 contracts under FAR:
  
                    RESTRICTED RIGHTS LEGEND
  
 Use, reproduction and disclosure by the US Government is
 subject to restrictions as set forth in subparagraphs (a)
 and (c) of the Commercial Computer Software - Restricted
 Rights clause in FAR 52.227-19.
  
 Gaussian, Inc.
 340 Quinnipiac St., Bldg. 40, Wallingford CT 06492
  
  
 ---------------------------------------------------------------
 Warning -- This program may not be used in any manner that
 competes with the business of Gaussian, Inc. or will provide
 assistance to any competitor of Gaussian, Inc.  The licensee
 of this program is prohibited from giving any competitor of
 Gaussian, Inc. access to this program.  By using this program,
 the user acknowledges that Gaussian, Inc. is engaged in the
 business of creating and licensing software in the field of
 computational chemistry and represents and warrants to the
 licensee that it is not a competitor of Gaussian, Inc. and that
 it will not use this program in any manner prohibited above.
 ---------------------------------------------------------------
  

 Cite this work as:
 Gaussian 09, Revision A.02,
 M. J. Frisch, G. W. Trucks, H. B. Schlegel, G. E. Scuseria, 
 M. A. Robb, J. R. Cheeseman, G. Scalmani, V. Barone, B. Mennucci, 
 G. A. Petersson, H. Nakatsuji, M. Caricato, X. Li, H. P. Hratchian, 
 A. F. Izmaylov, J. Bloino, G. Zheng, J. L. Sonnenberg, M. Hada, 
 M. Ehara, K. Toyota, R. Fukuda, J. Hasegawa, M. Ishida, T. Nakajima, 
 Y. Honda, O. Kitao, H. Nakai, T. Vreven, J. A. Montgomery, Jr., 
 J. E. Peralta, F. Ogliaro, M. Bearpark, J. J. Heyd, E. Brothers, 
 K. N. Kudin, V. N. Staroverov, R. Kobayashi, J. Normand, 
 K. Raghavachari, A. Rendell, J. C. Burant, S. S. Iyengar, J. Tomasi, 
 M. Cossi, N. Rega, J. M. Millam, M. Klene, J. E. Knox, J. B. Cross, 
 V. Bakken, C. Adamo, J. Jaramillo, R. Gomperts, R. E. Stratmann, 
 O. Yazyev, A. J. Austin, R. Cammi, C. Pomelli, J. W. Ochterski, 
 R. L. Martin, K. Morokuma, V. G. Zakrzewski, G. A. Voth, 
 P. Salvador, J. J. Dannenberg, S. Dapprich, A. D. Daniels, 
 O. Farkas, J. B. Foresman, J. V. Ortiz, J. Cioslowski, 
 and D. J. Fox, Gaussian, Inc., Wallingford CT, 2009.
 
 ******************************************
 Gaussian 09:  IA32W-G09RevA.02 11-Jun-2009
                22-Nov-2023 
 ******************************************
 %chk=C:\Users\Gaming\Desktop\guassian test\acetamide.chk
 --------------------
 # opt freq hf/6-31+g
 --------------------
 1/18=20,19=15,38=1/1,3;
 2/9=110,12=2,17=6,18=5,40=1/2;
 3/5=1,6=6,7=10,11=9,16=1,25=1,30=1,71=1/1,2,3;
 4//1;
 5/5=2,38=5/2;
 6/7=2,8=2,9=2,10=2,28=1/1;
 7//1,2,3,16;
 1/18=20,19=15/3(2);
 2/9=110/2;
 99//99;
 2/9=110/2;
 3/5=1,6=6,7=10,11=9,16=1,25=1,30=1,71=1/1,2,3;
 4/5=5,16=3/1;
 5/5=2,38=5/2;
 7//1,2,3,16;
 1/18=20,19=15/3(-5);
 2/9=110/2;
 6/7=2,8=2,9=2,10=2,19=2,28=1/1;
 99/9=1/99;
 -------------------
 Title Card Required
 -------------------
 Symbolic Z-matrix:
 Charge =  0 Multiplicity = 1
 C                     2.81955   0.26316   0. 
 H                     3.1762   -0.74565   0. 
 H                     3.17622   0.76756   0.87365 
 H                     3.17622   0.76756  -0.87365 
 C                     1.27955   0.26318   0. 
 N                     0.54706  -1.01132   0. 
 H                     0.7883   -1.53444  -0.81741 
 H                     0.79104  -1.53601   0.81558 
 O                     0.64605   1.35049   0. 
 

 GradGradGradGradGradGradGradGradGradGradGradGradGradGradGradGradGradGrad
 Berny optimization.
 Initialization pass.
                           ----------------------------
                           !    Initial Parameters    !
                           ! (Angstroms and Degrees)  !
 --------------------------                            --------------------------
 ! Name  Definition              Value          Derivative Info.                !
 --------------------------------------------------------------------------------
 ! R1    R(1,2)                  1.07           estimate D2E/DX2                !
 ! R2    R(1,3)                  1.07           estimate D2E/DX2                !
 ! R3    R(1,4)                  1.07           estimate D2E/DX2                !
 ! R4    R(1,5)                  1.54           estimate D2E/DX2                !
 ! R5    R(5,6)                  1.47           estimate D2E/DX2                !
 ! R6    R(5,9)                  1.2584         estimate D2E/DX2                !
 ! R7    R(6,7)                  1.0            estimate D2E/DX2                !
 ! R8    R(6,8)                  1.0            estimate D2E/DX2                !
 ! A1    A(2,1,3)              109.4712         estimate D2E/DX2                !
 ! A2    A(2,1,4)              109.4712         estimate D2E/DX2                !
 ! A3    A(2,1,5)              109.4712         estimate D2E/DX2                !
 ! A4    A(3,1,4)              109.4713         estimate D2E/DX2                !
 ! A5    A(3,1,5)              109.4712         estimate D2E/DX2                !
 ! A6    A(4,1,5)              109.4712         estimate D2E/DX2                !
 ! A7    A(1,5,6)              119.8865         estimate D2E/DX2                !
 ! A8    A(1,5,9)              120.2269         estimate D2E/DX2                !
 ! A9    A(6,5,9)              119.8865         estimate D2E/DX2                !
 ! A10   A(5,6,7)              109.4712         estimate D2E/DX2                !
 ! A11   A(5,6,8)              109.4712         estimate D2E/DX2                !
 ! A12   A(7,6,8)              109.4713         estimate D2E/DX2                !
 ! D1    D(2,1,5,6)              0.0            estimate D2E/DX2                !
 ! D2    D(2,1,5,9)            180.0            estimate D2E/DX2                !
 ! D3    D(3,1,5,6)           -120.0            estimate D2E/DX2                !
 ! D4    D(3,1,5,9)             60.0            estimate D2E/DX2                !
 ! D5    D(4,1,5,6)            120.0            estimate D2E/DX2                !
 ! D6    D(4,1,5,9)            -60.0            estimate D2E/DX2                !
 ! D7    D(1,5,6,7)            -60.1111         estimate D2E/DX2                !
 ! D8    D(1,5,6,8)             59.8889         estimate D2E/DX2                !
 ! D9    D(9,5,6,7)            119.8889         estimate D2E/DX2                !
 ! D10   D(9,5,6,8)           -120.1111         estimate D2E/DX2                !
 --------------------------------------------------------------------------------
 Trust Radius=3.00D-01 FncErr=1.00D-07 GrdErr=1.00D-07
 Number of steps in this run=  40 maximum allowed number of steps= 100.
 GradGradGradGradGradGradGradGradGradGradGradGradGradGradGradGradGradGrad

                          Input orientation:                          
 ---------------------------------------------------------------------
 Center     Atomic      Atomic             Coordinates (Angstroms)
 Number     Number       Type             X           Y           Z
 ---------------------------------------------------------------------
      1          6           0        2.819549    0.263158    0.000000
      2          1           0        3.176203   -0.745652    0.000000
      3          1           0        3.176222    0.767556    0.873652
      4          1           0        3.176222    0.767556   -0.873652
      5          6           0        1.279549    0.263177    0.000000
      6          7           0        0.547056   -1.011325    0.000000
      7          1           0        0.788296   -1.534436   -0.817409
      8          1           0        0.791041   -1.536014    0.815581
      9          8           0        0.646051    1.350490    0.000000
 ---------------------------------------------------------------------
                    Distance matrix (angstroms):
                    1          2          3          4          5
     1  C    0.000000
     2  H    1.070000   0.000000
     3  H    1.070000   1.747302   0.000000
     4  H    1.070000   1.747302   1.747303   0.000000
     5  C    1.540000   2.148263   2.148263   2.148263   0.000000
     6  N    2.605481   2.642536   3.292445   3.292445   1.470000
     7  H    2.832930   2.644322   3.723042   3.317306   2.034920
     8  H    2.831437   2.641750   3.316458   3.721428   2.034920
     9  O    2.430306   3.285648   2.739497   2.739497   1.258400
                    6          7          8          9
     6  N    0.000000
     7  H    1.000000   0.000000
     8  H    1.000000   1.632993   0.000000
     9  O    2.363889   3.001864   3.003015   0.000000
 Stoichiometry    C2H5NO
 Framework group  C1[X(C2H5NO)]
 Deg. of freedom    21
 Full point group                 C1      NOp   1
 Largest Abelian subgroup         C1      NOp   1
 Largest concise Abelian subgroup C1      NOp   1
                         Standard orientation:                         
 ---------------------------------------------------------------------
 Center     Atomic      Atomic             Coordinates (Angstroms)
 Number     Number       Type             X           Y           Z
 ---------------------------------------------------------------------
      1          6           0       -1.289076   -0.613593   -0.000057
      2          1           0       -1.088957   -1.664713   -0.000057
      3          1           0       -1.851285   -0.357558   -0.873709
      4          1           0       -1.851285   -0.357558    0.873594
      5          6           0        0.041223    0.162232   -0.000057
      6          7           0        1.316035   -0.569720   -0.000057
      7          1           0        1.371172   -1.143133    0.817352
      8          1           0        1.369595   -1.145879   -0.815638
      9          8           0        0.040704    1.420632   -0.000057
 ---------------------------------------------------------------------
 Rotational constants (GHZ):     10.1343371      8.5739705      4.9043588
 Standard basis: 6-31+G (6D, 7F)
 There are    62 symmetry adapted basis functions of A   symmetry.
 Integral buffers will be    262144 words long.
 Raffenetti 1 integral format.
 Two-electron integral symmetry is turned on.
    62 basis functions,   124 primitive gaussians,    62 cartesian basis functions
    16 alpha electrons       16 beta electrons
       nuclear repulsion energy       118.3870286778 Hartrees.
 NAtoms=    9 NActive=    9 NUniq=    9 SFac= 7.50D-01 NAtFMM=   80 NAOKFM=F Big=F
 One-electron integrals computed using PRISM.
 NBasis=    62 RedAO= T  NBF=    62
 NBsUse=    62 1.00D-06 NBFU=    62
 Harris functional with IExCor=  205 diagonalized for initial guess.
 ExpMin= 4.38D-02 ExpMax= 5.48D+03 ExpMxC= 8.25D+02 IAcc=2 IRadAn=         0 AccDes= 0.00D+00
 HarFok:  IExCor=  205 AccDes= 0.00D+00 IRadAn=         0 IDoV= 1
 ScaDFX=  1.000000  1.000000  1.000000  1.000000
 FoFCou: FMM=F IPFlag=           0 FMFlag=      100000 FMFlg1=           0
         NFxFlg=           0 DoJE=T BraDBF=F KetDBF=T FulRan=T
         Omega=  0.000000  0.000000  1.000000  0.000000  0.000000 ICntrl=     500 IOpCl=  0
         NMat0=    1 NMatS0=    1 NMatT0=    0 NMatD0=    1 NMtDS0=    0 NMtDT0=    0
         I1Cent=           4 NGrid=           0.
 Petite list used in FoFCou.
 Initial guess orbital symmetries:
       Occupied  (A) (A) (A) (A) (A) (A) (A) (A) (A) (A) (A) (A)
                 (A) (A) (A) (A)
       Virtual   (A) (A) (A) (A) (A) (A) (A) (A) (A) (A) (A) (A)
                 (A) (A) (A) (A) (A) (A) (A) (A) (A) (A) (A) (A)
                 (A) (A) (A) (A) (A) (A) (A) (A) (A) (A) (A) (A)
                 (A) (A) (A) (A) (A) (A) (A) (A) (A) (A)
 The electronic state of the initial guess is 1-A.
 Requested convergence on RMS density matrix=1.00D-08 within 128 cycles.
 Requested convergence on MAX density matrix=1.00D-06.
 Requested convergence on             energy=1.00D-06.
 No special actions if energy rises.
 Keep R1 ints in memory in canonical form, NReq=2738529.
 SCF Done:  E(RHF) =  -207.846905174     A.U. after   13 cycles
             Convg  =    0.3426D-08             -V/T =  2.0008

 **********************************************************************

            Population analysis using the SCF density.

 **********************************************************************

 Orbital symmetries:
       Occupied  (A) (A) (A) (A) (A) (A) (A) (A) (A) (A) (A) (A)
                 (A) (A) (A) (A)
       Virtual   (A) (A) (A) (A) (A) (A) (A) (A) (A) (A) (A) (A)
                 (A) (A) (A) (A) (A) (A) (A) (A) (A) (A) (A) (A)
                 (A) (A) (A) (A) (A) (A) (A) (A) (A) (A) (A) (A)
                 (A) (A) (A) (A) (A) (A) (A) (A) (A) (A)
 The electronic state is 1-A.
 Alpha  occ. eigenvalues --  -20.58106 -15.58532 -11.39564 -11.25539  -1.39851
 Alpha  occ. eigenvalues --   -1.21157  -1.02717  -0.78497  -0.70265  -0.67509
 Alpha  occ. eigenvalues --   -0.63591  -0.61364  -0.57955  -0.48669  -0.45114
 Alpha  occ. eigenvalues --   -0.42750
 Alpha virt. eigenvalues --    0.06184   0.08909   0.10319   0.11239   0.11600
 Alpha virt. eigenvalues --    0.13319   0.14492   0.15029   0.17192   0.19960
 Alpha virt. eigenvalues --    0.20441   0.23810   0.31206   0.32488   0.32579
 Alpha virt. eigenvalues --    0.35879   0.38498   0.39004   0.39376   0.41906
 Alpha virt. eigenvalues --    0.42356   0.46448   0.46676   0.53355   0.62494
 Alpha virt. eigenvalues --    0.83959   0.88003   0.90562   0.92046   1.01803
 Alpha virt. eigenvalues --    1.04457   1.15092   1.16195   1.25356   1.26731
 Alpha virt. eigenvalues --    1.28057   1.32826   1.34609   1.38509   1.42707
 Alpha virt. eigenvalues --    1.51415   1.56580   1.62976   1.68281   1.80465
 Alpha virt. eigenvalues --    2.14428
          Condensed to atoms (all electrons):
              1          2          3          4          5          6
     1  C    6.186275   0.385363   0.361503   0.361510  -0.399385  -0.257149
     2  H    0.385363   0.528122  -0.027763  -0.027758  -0.051712  -0.012483
     3  H    0.361503  -0.027763   0.451511  -0.015720  -0.011326   0.008158
     4  H    0.361510  -0.027758  -0.015720   0.451501  -0.011309   0.008140
     5  C   -0.399385  -0.051712  -0.011326  -0.011309   5.980075  -0.112023
     6  N   -0.257149  -0.012483   0.008158   0.008140  -0.112023   7.668723
     7  H    0.019441  -0.000343  -0.000031  -0.000398  -0.029651   0.298438
     8  H    0.019523  -0.000345  -0.000399  -0.000031  -0.029725   0.298306
     9  O   -0.138423   0.008634  -0.006400  -0.006402   0.312145  -0.083192
              7          8          9
     1  C    0.019441   0.019523  -0.138423
     2  H   -0.000343  -0.000345   0.008634
     3  H   -0.000031  -0.000399  -0.006400
     4  H   -0.000398  -0.000031  -0.006402
     5  C   -0.029651  -0.029725   0.312145
     6  N    0.298438   0.298306  -0.083192
     7  H    0.368944  -0.041149  -0.002293
     8  H   -0.041149   0.369194  -0.002220
     9  O   -0.002293  -0.002220   8.368598
 Mulliken atomic charges:
              1
     1  C   -0.538659
     2  H    0.198286
     3  H    0.240468
     4  H    0.240468
     5  C    0.352912
     6  N   -0.816917
     7  H    0.387043
     8  H    0.386846
     9  O   -0.450446
 Sum of Mulliken atomic charges =   0.00000
 Mulliken charges with hydrogens summed into heavy atoms:
              1
     1  C    0.140563
     5  C    0.352912
     6  N   -0.043028
     9  O   -0.450446
 Sum of Mulliken charges with hydrogens summed into heavy atoms =   0.00000
 Electronic spatial extent (au):  <R**2>=            283.4197
 Charge=              0.0000 electrons
 Dipole moment (field-independent basis, Debye):
    X=             -1.7543    Y=             -5.0328    Z=              0.0038  Tot=              5.3298
 Quadrupole moment (field-independent basis, Debye-Ang):
   XX=            -26.8227   YY=            -28.3103   ZZ=            -22.2505
   XY=             -2.4585   XZ=              0.0095   YZ=              0.0010
 Traceless Quadrupole moment (field-independent basis, Debye-Ang):
   XX=             -1.0282   YY=             -2.5158   ZZ=              3.5440
   XY=             -2.4585   XZ=              0.0095   YZ=              0.0010
 Octapole moment (field-independent basis, Debye-Ang**2):
  XXX=             -9.3574  YYY=            -10.7574  ZZZ=              0.0078  XYY=              4.0229
  XXY=             -3.6589  XXZ=              0.0196  XZZ=              1.8020  YZZ=             -1.6611
  YYZ=             -0.0056  XYZ=             -0.0019
 Hexadecapole moment (field-independent basis, Debye-Ang**3):
 XXXX=           -201.4248 YYYY=           -148.7542 ZZZZ=            -31.1813 XXXY=             -7.6940
 XXXZ=              0.0303 YYYX=             -7.4677 YYYZ=              0.0123 ZZZX=              0.0079
 ZZZY=             -0.0040 XXYY=            -50.9723 XXZZ=            -30.7724 YYZZ=            -26.8381
 XXYZ=             -0.0077 YYXZ=             -0.0053 ZZXY=             -4.3488
 N-N= 1.183870286778D+02 E-N=-7.245214689568D+02  KE= 2.076771947832D+02
 Calling FoFJK, ICntrl=      2127 FMM=F ISym2X=0 I1Cent= 0 IOpClX= 0 NMat=1 NMatS=1 NMatT=0.
 ***** Axes restored to original set *****
 -------------------------------------------------------------------
 Center     Atomic                   Forces (Hartrees/Bohr)
 Number     Number              X              Y              Z
 -------------------------------------------------------------------
      1        6          -0.030035310   -0.010368907    0.000020659
      2        1           0.006188101   -0.006449117   -0.000002250
      3        1           0.002912131    0.005837203    0.006044086
      4        1           0.002905769    0.005835268   -0.006045828
      5        6          -0.039912062    0.053096824    0.000019964
      6        7           0.031685540    0.027365987    0.000000967
      7        1          -0.006174354   -0.004364598   -0.004222946
      8        1          -0.006125555   -0.004378301    0.004207052
      9        8           0.038555740   -0.066574358   -0.000021704
 -------------------------------------------------------------------
 Cartesian Forces:  Max     0.066574358 RMS     0.022344817

 GradGradGradGradGradGradGradGradGradGradGradGradGradGradGradGradGradGrad
 Berny optimization.
 Internal  Forces:  Max     0.076932762 RMS     0.015858060
 Search for a local minimum.
 Step number   1 out of a maximum of   40
 All quantities printed in internal units (Hartrees-Bohrs-Radians)
 Mixed Optimization -- RFO/linear search
 Second derivative matrix not updated -- first step.
     Eigenvalues ---    0.00237   0.00448   0.00766   0.05453   0.07243
     Eigenvalues ---    0.07243   0.16000   0.16000   0.16000   0.16000
     Eigenvalues ---    0.16000   0.25000   0.25000   0.28519   0.35740
     Eigenvalues ---    0.37230   0.37230   0.37230   0.47688   0.47688
     Eigenvalues ---    0.802091000.000001000.000001000.000001000.00000
     Eigenvalues --- 1000.000001000.000001000.000001000.000001000.00000
 RFO step:  Lambda=-1.43366326D-02 EMin= 2.36824120D-03
 Linear search not attempted -- first point.
 Iteration  1 RMS(Cart)=  0.04113482 RMS(Int)=  0.00372440
 Iteration  2 RMS(Cart)=  0.00262474 RMS(Int)=  0.00245513
 Iteration  3 RMS(Cart)=  0.00001241 RMS(Int)=  0.00245511
 Iteration  4 RMS(Cart)=  0.00000011 RMS(Int)=  0.00245511
 Variable       Old X    -DE/DX   Delta X   Delta X   Delta X     New X
                                 (Linear)    (Quad)   (Total)
    R1        2.02201   0.00814   0.00000   0.02106   0.02106   2.04307
    R2        2.02201   0.00866   0.00000   0.02239   0.02239   2.04440
    R3        2.02201   0.00866   0.00000   0.02239   0.02239   2.04439
    R4        2.91018  -0.01803   0.00000  -0.06019  -0.06019   2.84999
    R5        2.77790  -0.02581   0.00000  -0.06942  -0.06942   2.70848
    R6        2.37803  -0.07693   0.00000  -0.09423  -0.09423   2.28380
    R7        1.88973   0.00425   0.00000   0.00864   0.00864   1.89837
    R8        1.88973   0.00423   0.00000   0.00862   0.00862   1.89835
    A1        1.91063  -0.00110   0.00000   0.00029   0.00016   1.91080
    A2        1.91063  -0.00110   0.00000   0.00026   0.00014   1.91077
    A3        1.91063   0.00635   0.00000   0.04301   0.04288   1.95352
    A4        1.91063  -0.00157   0.00000  -0.02221  -0.02253   1.88810
    A5        1.91063  -0.00128   0.00000  -0.01064  -0.01086   1.89978
    A6        1.91063  -0.00129   0.00000  -0.01072  -0.01094   1.89969
    A7        2.09241  -0.00331   0.00000  -0.01252  -0.01252   2.07989
    A8        2.09836   0.00189   0.00000   0.00716   0.00716   2.10552
    A9        2.09241   0.00142   0.00000   0.00536   0.00536   2.09777
   A10        1.91063   0.01002   0.00000   0.08158   0.07590   1.98654
   A11        1.91063   0.01001   0.00000   0.08149   0.07580   1.98644
   A12        1.91063  -0.00178   0.00000   0.03795   0.02913   1.93976
    D1        0.00000   0.00000   0.00000  -0.00005  -0.00005  -0.00005
    D2        3.14159   0.00000   0.00000   0.00010   0.00010  -3.14149
    D3       -2.09439  -0.00175   0.00000  -0.02023  -0.02015  -2.11454
    D4        1.04720  -0.00175   0.00000  -0.02008  -0.02000   1.02720
    D5        2.09439   0.00174   0.00000   0.02004   0.01996   2.11435
    D6       -1.04720   0.00175   0.00000   0.02020   0.02011  -1.02709
    D7       -1.04914  -0.00506   0.00000  -0.07395  -0.07704  -1.12618
    D8        1.04526   0.00502   0.00000   0.07239   0.07547   1.12073
    D9        2.09246  -0.00506   0.00000  -0.07411  -0.07719   2.01526
   D10       -2.09633   0.00502   0.00000   0.07223   0.07532  -2.02101
         Item               Value     Threshold  Converged?
 Maximum Force            0.076933     0.000450     NO 
 RMS     Force            0.015858     0.000300     NO 
 Maximum Displacement     0.095215     0.001800     NO 
 RMS     Displacement     0.040982     0.001200     NO 
 Predicted change in Energy=-7.741329D-03
 GradGradGradGradGradGradGradGradGradGradGradGradGradGradGradGradGradGrad

                          Input orientation:                          
 ---------------------------------------------------------------------
 Center     Atomic      Atomic             Coordinates (Angstroms)
 Number     Number       Type             X           Y           Z
 ---------------------------------------------------------------------
      1          6           0        2.806418    0.258087    0.000102
      2          1           0        3.208345   -0.745570    0.000232
      3          1           0        3.156846    0.787171    0.876269
      4          1           0        3.156871    0.786930   -0.876197
      5          6           0        1.298273    0.260827    0.000006
      6          7           0        0.597442   -0.989406    0.000023
      7          1           0        0.743908   -1.536630   -0.829592
      8          1           0        0.747795   -1.538677    0.827573
      9          8           0        0.684290    1.301779   -0.000244
 ---------------------------------------------------------------------
                    Distance matrix (angstroms):
                    1          2          3          4          5
     1  C    0.000000
     2  H    1.081145   0.000000
     3  H    1.081849   1.766180   0.000000
     4  H    1.081847   1.766164   1.752465   0.000000
     5  C    1.508147   2.158984   2.121124   2.121062   0.000000
     6  N    2.536891   2.622265   3.236446   3.236327   1.433265
     7  H    2.857158   2.718058   3.759293   3.350149   2.055822
     8  H    2.854995   2.714372   3.348950   3.756984   2.055749
     9  O    2.364893   3.249999   2.673317   2.673204   1.208535
                    6          7          8          9
     6  N    0.000000
     7  H    1.004574   0.000000
     8  H    1.004561   1.657171   0.000000
     9  O    2.292831   2.957692   2.959308   0.000000
 Stoichiometry    C2H5NO
 Framework group  C1[X(C2H5NO)]
 Deg. of freedom    21
 Full point group                 C1      NOp   1
 Largest Abelian subgroup         C1      NOp   1
 Largest concise Abelian subgroup C1      NOp   1
                         Standard orientation:                         
 ---------------------------------------------------------------------
 Center     Atomic      Atomic             Coordinates (Angstroms)
 Number     Number       Type             X           Y           Z
 ---------------------------------------------------------------------
      1          6           0       -1.254135   -0.613578    0.000172
      2          1           0       -1.080196   -1.680639    0.000215
      3          1           0       -1.827572   -0.341542   -0.875935
      4          1           0       -1.827127   -0.341423    0.876531
      5          6           0        0.036064    0.167380   -0.000135
      6          7           0        1.281733   -0.541532   -0.000258
      7          1           0        1.438974   -1.085643    0.829432
      8          1           0        1.436377   -1.089724   -0.827732
      9          8           0        0.024480    1.375860   -0.000116
 ---------------------------------------------------------------------
 Rotational constants (GHZ):     10.6860090      8.8895002      5.1421374
 Standard basis: 6-31+G (6D, 7F)
 There are    62 symmetry adapted basis functions of A   symmetry.
 Integral buffers will be    262144 words long.
 Raffenetti 1 integral format.
 Two-electron integral symmetry is turned on.
    62 basis functions,   124 primitive gaussians,    62 cartesian basis functions
    16 alpha electrons       16 beta electrons
       nuclear repulsion energy       120.7814105043 Hartrees.
 NAtoms=    9 NActive=    9 NUniq=    9 SFac= 7.50D-01 NAtFMM=   80 NAOKFM=F Big=F
 One-electron integrals computed using PRISM.
 NBasis=    62 RedAO= T  NBF=    62
 NBsUse=    62 1.00D-06 NBFU=    62
 Initial guess read from the read-write file.
 B after Tr=     0.000000    0.000000    0.000000
         Rot=    1.000000    0.000000    0.000000    0.000000 Ang=   0.00 deg.
 Initial guess orbital symmetries:
       Occupied  (A) (A) (A) (A) (A) (A) (A) (A) (A) (A) (A) (A)
                 (A) (A) (A) (A)
       Virtual   (A) (A) (A) (A) (A) (A) (A) (A) (A) (A) (A) (A)
                 (A) (A) (A) (A) (A) (A) (A) (A) (A) (A) (A) (A)
                 (A) (A) (A) (A) (A) (A) (A) (A) (A) (A) (A) (A)
                 (A) (A) (A) (A) (A) (A) (A) (A) (A) (A)
 Harris functional with IExCor=  205 diagonalized for initial guess.
 ExpMin= 4.38D-02 ExpMax= 5.48D+03 ExpMxC= 8.25D+02 IAcc=2 IRadAn=         0 AccDes= 0.00D+00
 HarFok:  IExCor=  205 AccDes= 0.00D+00 IRadAn=         0 IDoV= 1
 ScaDFX=  1.000000  1.000000  1.000000  1.000000
 FoFCou: FMM=F IPFlag=           0 FMFlag=      100000 FMFlg1=           0
         NFxFlg=           0 DoJE=T BraDBF=F KetDBF=T FulRan=T
         Omega=  0.000000  0.000000  1.000000  0.000000  0.000000 ICntrl=     500 IOpCl=  0
         NMat0=    1 NMatS0=    1 NMatT0=    0 NMatD0=    1 NMtDS0=    0 NMtDT0=    0
         I1Cent=           4 NGrid=           0.
 Petite list used in FoFCou.
 Requested convergence on RMS density matrix=1.00D-08 within 128 cycles.
 Requested convergence on MAX density matrix=1.00D-06.
 Requested convergence on             energy=1.00D-06.
 No special actions if energy rises.
 Keep R1 ints in memory in canonical form, NReq=2738529.
 SCF Done:  E(RHF) =  -207.854893222     A.U. after   12 cycles
             Convg  =    0.8099D-08             -V/T =  1.9997
 Calling FoFJK, ICntrl=      2127 FMM=F ISym2X=0 I1Cent= 0 IOpClX= 0 NMat=1 NMatS=1 NMatT=0.
 ***** Axes restored to original set *****
 -------------------------------------------------------------------
 Center     Atomic                   Forces (Hartrees/Bohr)
 Number     Number              X              Y              Z
 -------------------------------------------------------------------
      1        6          -0.002129000   -0.003356328    0.000041654
      2        1           0.000604614    0.001465554   -0.000001628
      3        1           0.002059961    0.000754481   -0.000213285
      4        1           0.002052553    0.000752117    0.000209345
      5        6          -0.007740361   -0.001993118   -0.000002805
      6        7           0.013132424   -0.003752836    0.000002829
      7        1          -0.004048216    0.002109155    0.002511548
      8        1          -0.003990787    0.002083822   -0.002516097
      9        8           0.000058812    0.001937153   -0.000031560
 -------------------------------------------------------------------
 Cartesian Forces:  Max     0.013132424 RMS     0.003527271

 GradGradGradGradGradGradGradGradGradGradGradGradGradGradGradGradGradGrad
 Berny optimization.
 Using GEDIIS/GDIIS optimizer.
 Internal  Forces:  Max     0.003813287 RMS     0.002065814
 Search for a local minimum.
 Step number   2 out of a maximum of   40
 All quantities printed in internal units (Hartrees-Bohrs-Radians)
 Mixed Optimization -- RFO/linear search
 Update second derivatives using D2CorX and points    1    2
 DE= -7.99D-03 DEPred=-7.74D-03 R= 1.03D+00
 SS=  1.41D+00  RLast= 2.43D-01 DXNew= 5.0454D-01 7.2849D-01
 Trust test= 1.03D+00 RLast= 2.43D-01 DXMaxT set to 5.05D-01
 Use linear search instead of GDIIS.
     Eigenvalues ---    0.00237   0.00447   0.00766   0.03815   0.06931
     Eigenvalues ---    0.07369   0.15515   0.16000   0.16000   0.16000
     Eigenvalues ---    0.16218   0.24833   0.25014   0.29361   0.35052
     Eigenvalues ---    0.37131   0.37230   0.37427   0.47688   0.48224
     Eigenvalues ---    0.846451000.000001000.000001000.000001000.00000
     Eigenvalues --- 1000.000001000.000001000.000001000.000001000.00000
 RFO step:  Lambda=-1.14294821D-03 EMin= 2.36824118D-03
 Quartic linear search produced a step of  0.08733.
 Iteration  1 RMS(Cart)=  0.02719794 RMS(Int)=  0.00196684
 Iteration  2 RMS(Cart)=  0.00126129 RMS(Int)=  0.00152531
 Iteration  3 RMS(Cart)=  0.00000372 RMS(Int)=  0.00152530
 Iteration  4 RMS(Cart)=  0.00000002 RMS(Int)=  0.00152530
 Variable       Old X    -DE/DX   Delta X   Delta X   Delta X     New X
                                 (Linear)    (Quad)   (Total)
    R1        2.04307  -0.00114   0.00184  -0.00452  -0.00268   2.04039
    R2        2.04440   0.00086   0.00196   0.00126   0.00321   2.04761
    R3        2.04439   0.00086   0.00196   0.00126   0.00321   2.04761
    R4        2.84999   0.00259  -0.00526   0.01346   0.00821   2.85819
    R5        2.70848  -0.00287  -0.00606  -0.00480  -0.01086   2.69761
    R6        2.28380   0.00164  -0.00823   0.00713  -0.00110   2.28270
    R7        1.89837  -0.00381   0.00075  -0.00920  -0.00844   1.88993
    R8        1.89835  -0.00381   0.00075  -0.00919  -0.00843   1.88991
    A1        1.91080  -0.00133   0.00001  -0.00787  -0.00794   1.90286
    A2        1.91077  -0.00132   0.00001  -0.00791  -0.00797   1.90280
    A3        1.95352   0.00090   0.00375   0.00431   0.00798   1.96149
    A4        1.88810  -0.00236  -0.00197  -0.01676  -0.01881   1.86929
    A5        1.89978   0.00202  -0.00095   0.01389   0.01286   1.91264
    A6        1.89969   0.00200  -0.00096   0.01377   0.01274   1.91243
    A7        2.07989  -0.00208  -0.00109  -0.00828  -0.00937   2.07052
    A8        2.10552  -0.00014   0.00063  -0.00106  -0.00043   2.10509
    A9        2.09777   0.00222   0.00047   0.00934   0.00981   2.10758
   A10        1.98654   0.00325   0.00663   0.03995   0.04262   2.02916
   A11        1.98644   0.00324   0.00662   0.03984   0.04251   2.02894
   A12        1.93976  -0.00036   0.00254   0.03247   0.02969   1.96946
    D1       -0.00005   0.00000   0.00000   0.00005   0.00004  -0.00001
    D2       -3.14149   0.00000   0.00001  -0.00048  -0.00047   3.14122
    D3       -2.11454  -0.00028  -0.00176  -0.00225  -0.00401  -2.11855
    D4        1.02720  -0.00028  -0.00175  -0.00278  -0.00452   1.02268
    D5        2.11435   0.00028   0.00174   0.00221   0.00396   2.11831
    D6       -1.02709   0.00027   0.00176   0.00168   0.00344  -1.02365
    D7       -1.12618  -0.00277  -0.00673  -0.06414  -0.07247  -1.19864
    D8        1.12073   0.00269   0.00659   0.05566   0.06384   1.18458
    D9        2.01526  -0.00276  -0.00674  -0.06361  -0.07195   1.94331
   D10       -2.02101   0.00270   0.00658   0.05618   0.06436  -1.95665
         Item               Value     Threshold  Converged?
 Maximum Force            0.003813     0.000450     NO 
 RMS     Force            0.002066     0.000300     NO 
 Maximum Displacement     0.081734     0.001800     NO 
 RMS     Displacement     0.026613     0.001200     NO 
 Predicted change in Energy=-7.555052D-04
 GradGradGradGradGradGradGradGradGradGradGradGradGradGradGradGradGradGrad

                          Input orientation:                          
 ---------------------------------------------------------------------
 Center     Atomic      Atomic             Coordinates (Angstroms)
 Number     Number       Type             X           Y           Z
 ---------------------------------------------------------------------
      1          6           0        2.812513    0.264842    0.000473
      2          1           0        3.229265   -0.731213    0.001477
      3          1           0        3.172324    0.799166    0.871744
      4          1           0        3.173020    0.797636   -0.871444
      5          6           0        1.300047    0.256416   -0.000309
      6          7           0        0.622995   -1.000327    0.000315
      7          1           0        0.700656   -1.545238   -0.834702
      8          1           0        0.710227   -1.549345    0.831680
      9          8           0        0.679141    1.292573   -0.001061
 ---------------------------------------------------------------------
                    Distance matrix (angstroms):
                    1          2          3          4          5
     1  C    0.000000
     2  H    1.079726   0.000000
     3  H    1.083549   1.761439   0.000000
     4  H    1.083546   1.761401   1.743188   0.000000
     5  C    1.512490   2.167325   2.135527   2.135375   0.000000
     6  N    2.528763   2.620127   3.239852   3.239639   1.427515
     7  H    2.904109   2.784905   3.810162   3.406317   2.073991
     8  H    2.898584   2.775631   3.402798   3.804511   2.073853
     9  O    2.368018   3.255587   2.687230   2.687371   1.207951
                    6          7          8          9
     6  N    0.000000
     7  H    1.000107   0.000000
     8  H    1.000099   1.666415   0.000000
     9  O    2.293587   2.957802   2.961574   0.000000
 Stoichiometry    C2H5NO
 Framework group  C1[X(C2H5NO)]
 Deg. of freedom    21
 Full point group                 C1      NOp   1
 Largest Abelian subgroup         C1      NOp   1
 Largest concise Abelian subgroup C1      NOp   1
                         Standard orientation:                         
 ---------------------------------------------------------------------
 Center     Atomic      Atomic             Coordinates (Angstroms)
 Number     Number       Type             X           Y           Z
 ---------------------------------------------------------------------
      1          6           0       -1.258503   -0.609510    0.000411
      2          1           0       -1.097571   -1.677176    0.000300
      3          1           0       -1.843800   -0.340425   -0.870853
      4          1           0       -1.842854   -0.340523    0.872335
      5          6           0        0.038536    0.168510   -0.000064
      6          7           0        1.269652   -0.554092   -0.000564
      7          1           0        1.486535   -1.059380    0.834816
      8          1           0        1.479774   -1.069361   -0.831555
      9          8           0        0.031270    1.376439   -0.000397
 ---------------------------------------------------------------------
 Rotational constants (GHZ):     10.6734101      8.8685796      5.1321240
 Standard basis: 6-31+G (6D, 7F)
 There are    62 symmetry adapted basis functions of A   symmetry.
 Integral buffers will be    262144 words long.
 Raffenetti 1 integral format.
 Two-electron integral symmetry is turned on.
    62 basis functions,   124 primitive gaussians,    62 cartesian basis functions
    16 alpha electrons       16 beta electrons
       nuclear repulsion energy       120.7301311538 Hartrees.
 NAtoms=    9 NActive=    9 NUniq=    9 SFac= 7.50D-01 NAtFMM=   80 NAOKFM=F Big=F
 One-electron integrals computed using PRISM.
 NBasis=    62 RedAO= T  NBF=    62
 NBsUse=    62 1.00D-06 NBFU=    62
 Initial guess read from the read-write file.
 B after Tr=     0.000000    0.000000    0.000000
         Rot=    1.000000    0.000000    0.000000    0.000000 Ang=   0.00 deg.
 Initial guess orbital symmetries:
       Occupied  (A) (A) (A) (A) (A) (A) (A) (A) (A) (A) (A) (A)
                 (A) (A) (A) (A)
       Virtual   (A) (A) (A) (A) (A) (A) (A) (A) (A) (A) (A) (A)
                 (A) (A) (A) (A) (A) (A) (A) (A) (A) (A) (A) (A)
                 (A) (A) (A) (A) (A) (A) (A) (A) (A) (A) (A) (A)
                 (A) (A) (A) (A) (A) (A) (A) (A) (A) (A)
 Harris functional with IExCor=  205 diagonalized for initial guess.
 ExpMin= 4.38D-02 ExpMax= 5.48D+03 ExpMxC= 8.25D+02 IAcc=2 IRadAn=         0 AccDes= 0.00D+00
 HarFok:  IExCor=  205 AccDes= 0.00D+00 IRadAn=         0 IDoV= 1
 ScaDFX=  1.000000  1.000000  1.000000  1.000000
 FoFCou: FMM=F IPFlag=           0 FMFlag=      100000 FMFlg1=           0
         NFxFlg=           0 DoJE=T BraDBF=F KetDBF=T FulRan=T
         Omega=  0.000000  0.000000  1.000000  0.000000  0.000000 ICntrl=     500 IOpCl=  0
         NMat0=    1 NMatS0=    1 NMatT0=    0 NMatD0=    1 NMtDS0=    0 NMtDT0=    0
         I1Cent=           4 NGrid=           0.
 Petite list used in FoFCou.
 Requested convergence on RMS density matrix=1.00D-08 within 128 cycles.
 Requested convergence on MAX density matrix=1.00D-06.
 Requested convergence on             energy=1.00D-06.
 No special actions if energy rises.
 Keep R1 ints in memory in canonical form, NReq=2738529.
 SCF Done:  E(RHF) =  -207.855787882     A.U. after   12 cycles
             Convg  =    0.6687D-08             -V/T =  1.9997
 Calling FoFJK, ICntrl=      2127 FMM=F ISym2X=0 I1Cent= 0 IOpClX= 0 NMat=1 NMatS=1 NMatT=0.
 ***** Axes restored to original set *****
 -------------------------------------------------------------------
 Center     Atomic                   Forces (Hartrees/Bohr)
 Number     Number              X              Y              Z
 -------------------------------------------------------------------
      1        6           0.000126421   -0.000073216    0.000077601
      2        1          -0.000712090   -0.000062545   -0.000007184
      3        1          -0.000219809    0.000211122    0.000035797
      4        1          -0.000227872    0.000202466   -0.000047664
      5        6          -0.000325123   -0.004533439    0.000115741
      6        7           0.006340708   -0.002516698   -0.000004226
      7        1          -0.002004474    0.002228984    0.001017579
      8        1          -0.001808025    0.002163773   -0.001056263
      9        8          -0.001169736    0.002379553   -0.000131381
 -------------------------------------------------------------------
 Cartesian Forces:  Max     0.006340708 RMS     0.001866601

 GradGradGradGradGradGradGradGradGradGradGradGradGradGradGradGradGradGrad
 Berny optimization.
 Using GEDIIS/GDIIS optimizer.
 Internal  Forces:  Max     0.002850741 RMS     0.001134642
 Search for a local minimum.
 Step number   3 out of a maximum of   40
 All quantities printed in internal units (Hartrees-Bohrs-Radians)
 Mixed Optimization -- RFO/linear search
 Update second derivatives using D2CorX and points    1    2    3
 DE= -8.95D-04 DEPred=-7.56D-04 R= 1.18D+00
 SS=  1.41D+00  RLast= 1.57D-01 DXNew= 8.4853D-01 4.7080D-01
 Trust test= 1.18D+00 RLast= 1.57D-01 DXMaxT set to 5.05D-01
 Use linear search instead of GDIIS.
     Eigenvalues ---    0.00237   0.00449   0.00761   0.01948   0.06796
     Eigenvalues ---    0.07281   0.15935   0.16000   0.16000   0.16214
     Eigenvalues ---    0.17943   0.24763   0.25033   0.30286   0.33963
     Eigenvalues ---    0.37230   0.37321   0.37491   0.47105   0.47688
     Eigenvalues ---    0.883601000.000001000.000001000.000001000.00000
     Eigenvalues --- 1000.000001000.000001000.000001000.000001000.00000
 RFO step:  Lambda=-7.07345997D-04 EMin= 2.36822331D-03
 Quartic linear search produced a step of  1.16061.
 Iteration  1 RMS(Cart)=  0.04452238 RMS(Int)=  0.00701469
 Iteration  2 RMS(Cart)=  0.00439416 RMS(Int)=  0.00541549
 Iteration  3 RMS(Cart)=  0.00003557 RMS(Int)=  0.00541540
 Iteration  4 RMS(Cart)=  0.00000057 RMS(Int)=  0.00541540
 Variable       Old X    -DE/DX   Delta X   Delta X   Delta X     New X
                                 (Linear)    (Quad)   (Total)
    R1        2.04039  -0.00022  -0.00311   0.00132  -0.00179   2.03860
    R2        2.04761   0.00006   0.00373  -0.00136   0.00237   2.04998
    R3        2.04761   0.00006   0.00373  -0.00134   0.00238   2.04999
    R4        2.85819  -0.00103   0.00952  -0.01547  -0.00595   2.85224
    R5        2.69761  -0.00285  -0.01261  -0.01149  -0.02410   2.67351
    R6        2.28270   0.00264  -0.00128   0.00477   0.00349   2.28619
    R7        1.88993  -0.00222  -0.00980  -0.00363  -0.01343   1.87650
    R8        1.88991  -0.00222  -0.00979  -0.00366  -0.01345   1.87647
    A1        1.90286   0.00053  -0.00922   0.01288   0.00359   1.90645
    A2        1.90280   0.00053  -0.00925   0.01261   0.00328   1.90608
    A3        1.96149  -0.00083   0.00926  -0.01622  -0.00704   1.95446
    A4        1.86929   0.00015  -0.02183   0.01487  -0.00702   1.86228
    A5        1.91264  -0.00015   0.01493  -0.01104   0.00383   1.91647
    A6        1.91243  -0.00017   0.01478  -0.01138   0.00334   1.91577
    A7        2.07052  -0.00006  -0.01088   0.00587  -0.00502   2.06550
    A8        2.10509  -0.00022  -0.00050  -0.00142  -0.00194   2.10314
    A9        2.10758   0.00028   0.01138  -0.00445   0.00692   2.11450
   A10        2.02916   0.00064   0.04947   0.01339   0.04694   2.07609
   A11        2.02894   0.00057   0.04933   0.01246   0.04586   2.07481
   A12        1.96946   0.00094   0.03446   0.04362   0.06017   2.02962
    D1       -0.00001  -0.00001   0.00005  -0.00743  -0.00737  -0.00738
    D2        3.14122   0.00002  -0.00055   0.00298   0.00242  -3.13955
    D3       -2.11855  -0.00002  -0.00465  -0.00524  -0.00989  -2.12844
    D4        1.02268   0.00000  -0.00525   0.00516  -0.00010   1.02258
    D5        2.11831  -0.00002   0.00459  -0.01018  -0.00557   2.11273
    D6       -1.02365   0.00001   0.00399   0.00023   0.00422  -1.01943
    D7       -1.19864  -0.00162  -0.08410  -0.07550  -0.16318  -1.36182
    D8        1.18458   0.00145   0.07410   0.02918   0.10689   1.29146
    D9        1.94331  -0.00164  -0.08351  -0.08592  -0.17303   1.77028
   D10       -1.95665   0.00142   0.07470   0.01876   0.09703  -1.85962
         Item               Value     Threshold  Converged?
 Maximum Force            0.002851     0.000450     NO 
 RMS     Force            0.001135     0.000300     NO 
 Maximum Displacement     0.154622     0.001800     NO 
 RMS     Displacement     0.042827     0.001200     NO 
 Predicted change in Energy=-3.373004D-04
 GradGradGradGradGradGradGradGradGradGradGradGradGradGradGradGradGradGrad

                          Input orientation:                          
 ---------------------------------------------------------------------
 Center     Atomic      Atomic             Coordinates (Angstroms)
 Number     Number       Type             X           Y           Z
 ---------------------------------------------------------------------
      1          6           0        2.826055    0.274533    0.003835
      2          1           0        3.253425   -0.715946    0.012278
      3          1           0        3.179488    0.823588    0.870106
      4          1           0        3.181585    0.809249   -0.870514
      5          6           0        1.317138    0.238791    0.001700
      6          7           0        0.675122   -1.021909    0.001360
      7          1           0        0.618834   -1.532433   -0.848491
      8          1           0        0.669941   -1.557651    0.837404
      9          8           0        0.678599    1.266289   -0.009506
 ---------------------------------------------------------------------
                    Distance matrix (angstroms):
                    1          2          3          4          5
     1  C    0.000000
     2  H    1.078779   0.000000
     3  H    1.084805   1.763944   0.000000
     4  H    1.084808   1.763719   1.740680   0.000000
     5  C    1.509342   2.158898   2.136461   2.135965   0.000000
     6  N    2.511430   2.596416   3.229927   3.224231   1.414761
     7  H    2.977149   2.889402   3.880897   3.471550   2.085111
     8  H    2.949672   2.839663   3.459653   3.850657   2.084339
     9  O    2.365444   3.249531   2.687777   2.686105   1.209798
                    6          7          8          9
     6  N    0.000000
     7  H    0.993000   0.000000
     8  H    0.992984   1.686858   0.000000
     9  O    2.288227   2.922382   2.948215   0.000000
 Stoichiometry    C2H5NO
 Framework group  C1[X(C2H5NO)]
 Deg. of freedom    21
 Full point group                 C1      NOp   1
 Largest Abelian subgroup         C1      NOp   1
 Largest concise Abelian subgroup C1      NOp   1
                         Standard orientation:                         
 ---------------------------------------------------------------------
 Center     Atomic      Atomic             Coordinates (Angstroms)
 Number     Number       Type             X           Y           Z
 ---------------------------------------------------------------------
      1          6           0       -1.263834   -0.601237    0.002923
      2          1           0       -1.106534   -1.668486    0.001933
      3          1           0       -1.855462   -0.326456   -0.863838
      4          1           0       -1.845105   -0.326919    0.876812
      5          6           0        0.038419    0.161783   -0.004011
      6          7           0        1.247433   -0.572947   -0.001448
      7          1           0        1.566011   -0.971319    0.850524
      8          1           0        1.531345   -1.032073   -0.834883
      9          8           0        0.041276    1.371576   -0.001735
 ---------------------------------------------------------------------
 Rotational constants (GHZ):     10.7456210      8.8846224      5.1571315
 Standard basis: 6-31+G (6D, 7F)
 There are    62 symmetry adapted basis functions of A   symmetry.
 Integral buffers will be    262144 words long.
 Raffenetti 1 integral format.
 Two-electron integral symmetry is turned on.
    62 basis functions,   124 primitive gaussians,    62 cartesian basis functions
    16 alpha electrons       16 beta electrons
       nuclear repulsion energy       120.9825748545 Hartrees.
 NAtoms=    9 NActive=    9 NUniq=    9 SFac= 7.50D-01 NAtFMM=   80 NAOKFM=F Big=F
 One-electron integrals computed using PRISM.
 NBasis=    62 RedAO= T  NBF=    62
 NBsUse=    62 1.00D-06 NBFU=    62
 Initial guess read from the read-write file.
 B after Tr=     0.000000    0.000000    0.000000
         Rot=    1.000000    0.000000    0.000000    0.000000 Ang=   0.00 deg.
 Initial guess orbital symmetries:
       Occupied  (A) (A) (A) (A) (A) (A) (A) (A) (A) (A) (A) (A)
                 (A) (A) (A) (A)
       Virtual   (A) (A) (A) (A) (A) (A) (A) (A) (A) (A) (A) (A)
                 (A) (A) (A) (A) (A) (A) (A) (A) (A) (A) (A) (A)
                 (A) (A) (A) (A) (A) (A) (A) (A) (A) (A) (A) (A)
                 (A) (A) (A) (A) (A) (A) (A) (A) (A) (A)
 Harris functional with IExCor=  205 diagonalized for initial guess.
 ExpMin= 4.38D-02 ExpMax= 5.48D+03 ExpMxC= 8.25D+02 IAcc=2 IRadAn=         0 AccDes= 0.00D+00
 HarFok:  IExCor=  205 AccDes= 0.00D+00 IRadAn=         0 IDoV= 1
 ScaDFX=  1.000000  1.000000  1.000000  1.000000
 FoFCou: FMM=F IPFlag=           0 FMFlag=      100000 FMFlg1=           0
         NFxFlg=           0 DoJE=T BraDBF=F KetDBF=T FulRan=T
         Omega=  0.000000  0.000000  1.000000  0.000000  0.000000 ICntrl=     500 IOpCl=  0
         NMat0=    1 NMatS0=    1 NMatT0=    0 NMatD0=    1 NMtDS0=    0 NMtDT0=    0
         I1Cent=           4 NGrid=           0.
 Petite list used in FoFCou.
 Requested convergence on RMS density matrix=1.00D-08 within 128 cycles.
 Requested convergence on MAX density matrix=1.00D-06.
 Requested convergence on             energy=1.00D-06.
 No special actions if energy rises.
 Keep R1 ints in memory in canonical form, NReq=2738529.
 SCF Done:  E(RHF) =  -207.856540196     A.U. after   14 cycles
             Convg  =    0.1735D-08             -V/T =  1.9996
 Calling FoFJK, ICntrl=      2127 FMM=F ISym2X=0 I1Cent= 0 IOpClX= 0 NMat=1 NMatS=1 NMatT=0.
 ***** Axes restored to original set *****
 -------------------------------------------------------------------
 Center     Atomic                   Forces (Hartrees/Bohr)
 Number     Number              X              Y              Z
 -------------------------------------------------------------------
      1        6           0.002286280    0.001347929    0.001209054
      2        1          -0.000106864   -0.000063322   -0.000020237
      3        1          -0.000549590   -0.000450187   -0.000253544
      4        1          -0.000875649   -0.000543756    0.000162057
      5        6           0.000807299   -0.000075396   -0.001239544
      6        7           0.001979942   -0.001710751    0.000675603
      7        1          -0.001994209    0.000051968   -0.001154509
      8        1          -0.000494519   -0.000721417    0.000858124
      9        8          -0.001052692    0.002164934   -0.000237003
 -------------------------------------------------------------------
 Cartesian Forces:  Max     0.002286280 RMS     0.001094457

 GradGradGradGradGradGradGradGradGradGradGradGradGradGradGradGradGradGrad
 Berny optimization.
 Using GEDIIS/GDIIS optimizer.
 Internal  Forces:  Max     0.002396521 RMS     0.000901777
 Search for a local minimum.
 Step number   4 out of a maximum of   40
 All quantities printed in internal units (Hartrees-Bohrs-Radians)
 Mixed Optimization -- En-DIIS/RFO-DIIS
 Update second derivatives using D2CorX and points    2    3    4
 DE= -7.52D-04 DEPred=-3.37D-04 R= 2.23D+00
 SS=  1.41D+00  RLast= 2.95D-01 DXNew= 8.4853D-01 8.8370D-01
 Trust test= 2.23D+00 RLast= 2.95D-01 DXMaxT set to 8.49D-01
 Use linear search instead of GDIIS.
     Eigenvalues ---    0.00230   0.00261   0.00483   0.01314   0.06824
     Eigenvalues ---    0.07273   0.15980   0.16000   0.16011   0.16550
     Eigenvalues ---    0.18560   0.24865   0.25418   0.30456   0.37203
     Eigenvalues ---    0.37252   0.37409   0.37851   0.47688   0.49624
     Eigenvalues ---    0.884531000.000001000.000001000.000001000.00000
     Eigenvalues --- 1000.000001000.000001000.000001000.000001000.00000
 RFO step:  Lambda=-2.52469079D-03 EMin= 2.29658083D-03
 Quartic linear search produced a step of  1.94076.
 Iteration  1 RMS(Cart)=  0.05878097 RMS(Int)=  0.12379360
 Iteration  2 RMS(Cart)=  0.05097096 RMS(Int)=  0.07461366
 Iteration  3 RMS(Cart)=  0.04744741 RMS(Int)=  0.04237378
 Iteration  4 RMS(Cart)=  0.01130833 RMS(Int)=  0.04069629
 Iteration  5 RMS(Cart)=  0.00064544 RMS(Int)=  0.04068973
 Iteration  6 RMS(Cart)=  0.00007480 RMS(Int)=  0.04068964
 Iteration  7 RMS(Cart)=  0.00000918 RMS(Int)=  0.04068964
 Iteration  8 RMS(Cart)=  0.00000113 RMS(Int)=  0.04068964
 Iteration  9 RMS(Cart)=  0.00000014 RMS(Int)=  0.04068964
 Variable       Old X    -DE/DX   Delta X   Delta X   Delta X     New X
                                 (Linear)    (Quad)   (Total)
    R1        2.03860   0.00002  -0.00347  -0.00146  -0.00493   2.03367
    R2        2.04998  -0.00061   0.00460  -0.00305   0.00155   2.05154
    R3        2.04999  -0.00069   0.00463  -0.00356   0.00107   2.05106
    R4        2.85224   0.00076  -0.01154   0.01007  -0.00148   2.85077
    R5        2.67351   0.00235  -0.04678   0.01090  -0.03588   2.63763
    R6        2.28619   0.00240   0.00677   0.00895   0.01572   2.30191
    R7        1.87650   0.00107  -0.02606   0.00095  -0.02512   1.85138
    R8        1.87647   0.00111  -0.02609   0.00115  -0.02494   1.85153
    A1        1.90645   0.00020   0.00697   0.00128   0.00830   1.91474
    A2        1.90608   0.00031   0.00637  -0.00063   0.00572   1.91181
    A3        1.95446   0.00002  -0.01366   0.00027  -0.01337   1.94109
    A4        1.86228   0.00073  -0.01362   0.00564  -0.00797   1.85431
    A5        1.91647  -0.00031   0.00742   0.00244   0.00990   1.92636
    A6        1.91577  -0.00091   0.00649  -0.00873  -0.00225   1.91352
    A7        2.06550   0.00069  -0.00974   0.00331  -0.00774   2.05776
    A8        2.10314  -0.00062  -0.00377  -0.00637  -0.01141   2.09174
    A9        2.11450  -0.00006   0.01343   0.00400   0.01607   2.13057
   A10        2.07609   0.00056   0.09109   0.04807   0.01446   2.09056
   A11        2.07481   0.00054   0.08901   0.04755   0.01183   2.08664
   A12        2.02962  -0.00018   0.11677   0.04551   0.03090   2.06052
    D1       -0.00738   0.00023  -0.01430   0.03842   0.02378   0.01640
    D2       -3.13955  -0.00011   0.00470  -0.07359  -0.06860   3.07504
    D3       -2.12844   0.00018  -0.01919   0.03491   0.01542  -2.11301
    D4        1.02258  -0.00016  -0.00019  -0.07709  -0.07695   0.94563
    D5        2.11273   0.00000  -0.01082   0.03175   0.02063   2.13337
    D6       -1.01943  -0.00034   0.00818  -0.08025  -0.07175  -1.09118
    D7       -1.36182  -0.00185  -0.31669  -0.40886  -0.70799  -2.06981
    D8        1.29146   0.00015   0.20744  -0.08332   0.10574   1.39721
    D9        1.77028  -0.00151  -0.33581  -0.29615  -0.61358   1.15670
   D10       -1.85962   0.00049   0.18832   0.02939   0.20015  -1.65947
         Item               Value     Threshold  Converged?
 Maximum Force            0.002397     0.000450     NO 
 RMS     Force            0.000902     0.000300     NO 
 Maximum Displacement     0.632778     0.001800     NO 
 RMS     Displacement     0.152600     0.001200     NO 
 Predicted change in Energy=-8.829088D-05
 GradGradGradGradGradGradGradGradGradGradGradGradGradGradGradGradGradGrad

                          Input orientation:                          
 ---------------------------------------------------------------------
 Center     Atomic      Atomic             Coordinates (Angstroms)
 Number     Number       Type             X           Y           Z
 ---------------------------------------------------------------------
      1          6           0        2.863037    0.294810    0.021406
      2          1           0        3.329464   -0.673664    0.072848
      3          1           0        3.148443    0.885014    0.886730
      4          1           0        3.233362    0.830397   -0.846951
      5          6           0        1.361517    0.173983   -0.059805
      6          7           0        0.807149   -1.106783   -0.037309
      7          1           0        0.283982   -1.424063   -0.802460
      8          1           0        0.701879   -1.572889    0.818053
      9          8           0        0.671356    1.177706   -0.054339
 ---------------------------------------------------------------------
                    Distance matrix (angstroms):
                    1          2          3          4          5
     1  C    0.000000
     2  H    1.076170   0.000000
     3  H    1.085626   1.767668   0.000000
     4  H    1.085375   1.765635   1.736618   0.000000
     5  C    1.508561   2.146839   2.143501   2.134076   0.000000
     6  N    2.488892   2.561601   3.209791   3.208535   1.395776
     7  H    3.206993   3.256412   4.048498   3.712602   2.065519
     8  H    2.965391   2.875437   3.468671   3.867354   2.063327
     9  O    2.364045   3.241803   2.665940   2.704207   1.218118
                    6          7          8          9
     6  N    0.000000
     7  H    0.979708   0.000000
     8  H    0.979786   1.680134   0.000000
     9  O    2.288584   2.734766   2.885788   0.000000
 Stoichiometry    C2H5NO
 Framework group  C1[X(C2H5NO)]
 Deg. of freedom    21
 Full point group                 C1      NOp   1
 Largest Abelian subgroup         C1      NOp   1
 Largest concise Abelian subgroup C1      NOp   1
                         Standard orientation:                         
 ---------------------------------------------------------------------
 Center     Atomic      Atomic             Coordinates (Angstroms)
 Number     Number       Type             X           Y           Z
 ---------------------------------------------------------------------
      1          6           0        1.302559   -0.538713   -0.012093
      2          1           0        1.199628   -1.609904   -0.002194
      3          1           0        1.876746   -0.218124    0.851687
      4          1           0        1.872897   -0.236901   -0.884825
      5          6           0       -0.045061    0.139098   -0.027886
      6          7           0       -1.182915   -0.669021   -0.007339
      7          1           0       -1.815738   -0.637428   -0.754577
      8          1           0       -1.491123   -1.048209    0.841899
      9          8           0       -0.113374    1.353925    0.029907
 ---------------------------------------------------------------------
 Rotational constants (GHZ):     10.9544621      8.8552019      5.1810231
 Standard basis: 6-31+G (6D, 7F)
 There are    62 symmetry adapted basis functions of A   symmetry.
 Integral buffers will be    262144 words long.
 Raffenetti 1 integral format.
 Two-electron integral symmetry is turned on.
    62 basis functions,   124 primitive gaussians,    62 cartesian basis functions
    16 alpha electrons       16 beta electrons
       nuclear repulsion energy       121.3302374509 Hartrees.
 NAtoms=    9 NActive=    9 NUniq=    9 SFac= 7.50D-01 NAtFMM=   80 NAOKFM=F Big=F
 One-electron integrals computed using PRISM.
 NBasis=    62 RedAO= T  NBF=    62
 NBsUse=    62 1.00D-06 NBFU=    62
 Initial guess read from the read-write file.
 B after Tr=     0.000000    0.000000    0.000000
         Rot=    1.000000    0.000000    0.000000    0.000000 Ang=   0.00 deg.
 Initial guess orbital symmetries:
       Occupied  (A) (A) (A) (A) (A) (A) (A) (A) (A) (A) (A) (A)
                 (A) (A) (A) (A)
       Virtual   (A) (A) (A) (A) (A) (A) (A) (A) (A) (A) (A) (A)
                 (A) (A) (A) (A) (A) (A) (A) (A) (A) (A) (A) (A)
                 (A) (A) (A) (A) (A) (A) (A) (A) (A) (A) (A) (A)
                 (A) (A) (A) (A) (A) (A) (A) (A) (A) (A)
 Harris functional with IExCor=  205 diagonalized for initial guess.
 ExpMin= 4.38D-02 ExpMax= 5.48D+03 ExpMxC= 8.25D+02 IAcc=2 IRadAn=         0 AccDes= 0.00D+00
 HarFok:  IExCor=  205 AccDes= 0.00D+00 IRadAn=         0 IDoV= 1
 ScaDFX=  1.000000  1.000000  1.000000  1.000000
 FoFCou: FMM=F IPFlag=           0 FMFlag=      100000 FMFlg1=           0
         NFxFlg=           0 DoJE=T BraDBF=F KetDBF=T FulRan=T
         Omega=  0.000000  0.000000  1.000000  0.000000  0.000000 ICntrl=     500 IOpCl=  0
         NMat0=    1 NMatS0=    1 NMatT0=    0 NMatD0=    1 NMtDS0=    0 NMtDT0=    0
         I1Cent=           4 NGrid=           0.
 Petite list used in FoFCou.
 Requested convergence on RMS density matrix=1.00D-08 within 128 cycles.
 Requested convergence on MAX density matrix=1.00D-06.
 Requested convergence on             energy=1.00D-06.
 No special actions if energy rises.
 Keep R1 ints in memory in canonical form, NReq=2738529.
 SCF Done:  E(RHF) =  -207.861325584     A.U. after   16 cycles
             Convg  =    0.2380D-08             -V/T =  1.9993
 Calling FoFJK, ICntrl=      2127 FMM=F ISym2X=0 I1Cent= 0 IOpClX= 0 NMat=1 NMatS=1 NMatT=0.
 ***** Axes restored to original set *****
 -------------------------------------------------------------------
 Center     Atomic                   Forces (Hartrees/Bohr)
 Number     Number              X              Y              Z
 -------------------------------------------------------------------
      1        6           0.000829821    0.000510625    0.000347120
      2        1           0.001520478   -0.000855809   -0.000475797
      3        1          -0.002163593   -0.001146542   -0.000495580
      4        1          -0.000983431   -0.001658954   -0.000363924
      5        6           0.002590887    0.015703768    0.017403694
      6        7           0.011906135   -0.000025924   -0.009676604
      7        1          -0.014647648   -0.001163721   -0.007011055
      8        1           0.001081135   -0.009045090    0.011148634
      9        8          -0.000133785   -0.002318352   -0.010876488
 -------------------------------------------------------------------
 Cartesian Forces:  Max     0.017403694 RMS     0.007206130

 GradGradGradGradGradGradGradGradGradGradGradGradGradGradGradGradGradGrad
 Berny optimization.
 Using GEDIIS/GDIIS optimizer.
 Internal  Forces:  Max     0.013919652 RMS     0.004808366
 Search for a local minimum.
 Step number   5 out of a maximum of   40
 All quantities printed in internal units (Hartrees-Bohrs-Radians)
 Mixed Optimization -- RFO/linear search
 Update second derivatives using D2CorX and points    4    5
 DE= -4.79D-03 DEPred=-8.83D-05 R= 5.42D+01
 SS=  1.41D+00  RLast= 9.75D-01 DXNew= 1.4270D+00 2.9256D+00
 Trust test= 5.42D+01 RLast= 9.75D-01 DXMaxT set to 1.43D+00
 Use linear search instead of GDIIS.
     Eigenvalues ---   -0.04236   0.00160   0.00238   0.01083   0.06865
     Eigenvalues ---    0.07228   0.15517   0.15990   0.15995   0.16494
     Eigenvalues ---    0.18010   0.23689   0.24688   0.29537   0.34155
     Eigenvalues ---    0.37232   0.37300   0.37533   0.42786   0.47688
     Eigenvalues ---    0.855811000.000001000.000001000.000001000.00000
     Eigenvalues --- 1000.000001000.000001000.000001000.000001000.00000
 RFO step:  Lambda=-4.79821339D-02 EMin=-4.23625186D-02
 Skip linear search -- no minimum in search direction.
 Iteration  1 RMS(Cart)=  0.08128468 RMS(Int)=  0.08635513
 Iteration  2 RMS(Cart)=  0.06285835 RMS(Int)=  0.02186046
 Iteration  3 RMS(Cart)=  0.01577696 RMS(Int)=  0.00952069
 Iteration  4 RMS(Cart)=  0.00047958 RMS(Int)=  0.00950938
 Iteration  5 RMS(Cart)=  0.00000149 RMS(Int)=  0.00950938
 Iteration  6 RMS(Cart)=  0.00000002 RMS(Int)=  0.00950938
 Variable       Old X    -DE/DX   Delta X   Delta X   Delta X     New X
                                 (Linear)    (Quad)   (Total)
    R1        2.03367   0.00141   0.00000   0.01248   0.01248   2.04615
    R2        2.05154  -0.00159   0.00000  -0.01520  -0.01520   2.03634
    R3        2.05106  -0.00086   0.00000  -0.00489  -0.00489   2.04617
    R4        2.85077  -0.00110   0.00000  -0.02659  -0.02659   2.82418
    R5        2.63763   0.00996   0.00000   0.09546   0.09546   2.73309
    R6        2.30191  -0.00188   0.00000  -0.00431  -0.00431   2.29760
    R7        1.85138   0.01367   0.00000   0.11648   0.11648   1.96786
    R8        1.85153   0.01392   0.00000   0.11842   0.11842   1.96995
    A1        1.91474   0.00048   0.00000   0.01260   0.01295   1.92769
    A2        1.91181  -0.00069   0.00000  -0.02243  -0.02240   1.88941
    A3        1.94109   0.00189   0.00000   0.03084   0.03103   1.97212
    A4        1.85431   0.00204   0.00000   0.03531   0.03520   1.88951
    A5        1.92636  -0.00252   0.00000  -0.05333  -0.05319   1.87317
    A6        1.91352  -0.00120   0.00000  -0.00308  -0.00311   1.91042
    A7        2.05776  -0.00229   0.00000  -0.04296  -0.07020   1.98757
    A8        2.09174   0.00301   0.00000   0.07277   0.04265   2.13438
    A9        2.13057  -0.00038   0.00000   0.00224  -0.02366   2.10690
   A10        2.09056  -0.00121   0.00000  -0.05377  -0.06072   2.02983
   A11        2.08664   0.00135   0.00000   0.00979   0.00292   2.08956
   A12        2.06052  -0.00123   0.00000  -0.01929  -0.02733   2.03319
    D1        0.01640  -0.00220   0.00000  -0.21568  -0.21751  -0.20111
    D2        3.07504   0.00237   0.00000   0.21032   0.21190  -2.99624
    D3       -2.11301  -0.00236   0.00000  -0.21589  -0.21741  -2.33042
    D4        0.94563   0.00221   0.00000   0.21011   0.21200   1.15763
    D5        2.13337  -0.00264   0.00000  -0.22577  -0.22753   1.90584
    D6       -1.09118   0.00193   0.00000   0.20023   0.20188  -0.88930
    D7       -2.06981  -0.00451   0.00000  -0.22157  -0.22685  -2.29666
    D8        1.39721  -0.00050   0.00000   0.00157  -0.00734   1.38987
    D9        1.15670  -0.00935   0.00000  -0.66111  -0.65220   0.50450
   D10       -1.65947  -0.00534   0.00000  -0.43798  -0.43269  -2.09216
         Item               Value     Threshold  Converged?
 Maximum Force            0.013920     0.000450     NO 
 RMS     Force            0.004808     0.000300     NO 
 Maximum Displacement     0.332649     0.001800     NO 
 RMS     Displacement     0.141475     0.001200     NO 
 Predicted change in Energy=-3.785283D-02
 GradGradGradGradGradGradGradGradGradGradGradGradGradGradGradGradGradGrad

                          Input orientation:                          
 ---------------------------------------------------------------------
 Center     Atomic      Atomic             Coordinates (Angstroms)
 Number     Number       Type             X           Y           Z
 ---------------------------------------------------------------------
      1          6           0        2.864374    0.300552    0.058045
      2          1           0        3.340020   -0.666390    0.163808
      3          1           0        3.150350    0.951375    0.867881
      4          1           0        3.202018    0.744971   -0.869809
      5          6           0        1.372049    0.220136    0.057465
      6          7           0        0.858312   -1.125988   -0.068165
      7          1           0        0.111868   -1.270444   -0.779754
      8          1           0        0.831200   -1.748919    0.767255
      9          8           0        0.669997    1.179218   -0.198554
 ---------------------------------------------------------------------
                    Distance matrix (angstroms):
                    1          2          3          4          5
     1  C    0.000000
     2  H    1.082775   0.000000
     3  H    1.077584   1.774502   0.000000
     4  H    1.082785   1.754807   1.750668   0.000000
     5  C    1.494490   2.161052   2.086586   2.117563   0.000000
     6  N    2.464798   2.534545   3.231882   3.104203   1.446291
     7  H    3.278143   3.417039   4.108961   3.690397   2.123870
     8  H    2.972727   2.798248   3.560923   3.810544   2.161828
     9  O    2.377643   3.265976   2.709492   2.655237   1.215837
                    6          7          8          9
     6  N    0.000000
     7  H    1.041348   0.000000
     8  H    1.042452   1.771896   0.000000
     9  O    2.316557   2.578788   3.087517   0.000000
 Stoichiometry    C2H5NO
 Framework group  C1[X(C2H5NO)]
 Deg. of freedom    21
 Full point group                 C1      NOp   1
 Largest Abelian subgroup         C1      NOp   1
 Largest concise Abelian subgroup C1      NOp   1
                         Standard orientation:                         
 ---------------------------------------------------------------------
 Center     Atomic      Atomic             Coordinates (Angstroms)
 Number     Number       Type             X           Y           Z
 ---------------------------------------------------------------------
      1          6           0       -1.295021   -0.537132    0.041348
      2          1           0       -1.201001   -1.615672    0.059040
      3          1           0       -1.923936   -0.227431   -0.777028
      4          1           0       -1.761930   -0.222148    0.966121
      5          6           0        0.017021    0.160738   -0.116840
      6          7           0        1.164077   -0.704512    0.048579
      7          1           0        1.914967   -0.359204    0.682086
      8          1           0        1.465128   -1.319604   -0.737384
      9          8           0        0.128279    1.366751   -0.009991
 ---------------------------------------------------------------------
 Rotational constants (GHZ):     10.5800950      8.9784540      5.1310104
 Standard basis: 6-31+G (6D, 7F)
 There are    62 symmetry adapted basis functions of A   symmetry.
 Integral buffers will be    262144 words long.
 Raffenetti 1 integral format.
 Two-electron integral symmetry is turned on.
    62 basis functions,   124 primitive gaussians,    62 cartesian basis functions
    16 alpha electrons       16 beta electrons
       nuclear repulsion energy       120.2813392336 Hartrees.
 NAtoms=    9 NActive=    9 NUniq=    9 SFac= 7.50D-01 NAtFMM=   80 NAOKFM=F Big=F
 One-electron integrals computed using PRISM.
 NBasis=    62 RedAO= T  NBF=    62
 NBsUse=    62 1.00D-06 NBFU=    62
 Initial guess read from the read-write file.
 B after Tr=     0.000000    0.000000    0.000000
         Rot=    1.000000    0.000000    0.000000    0.000000 Ang=   0.00 deg.
 Initial guess orbital symmetries:
       Occupied  (A) (A) (A) (A) (A) (A) (A) (A) (A) (A) (A) (A)
                 (A) (A) (A) (A)
       Virtual   (A) (A) (A) (A) (A) (A) (A) (A) (A) (A) (A) (A)
                 (A) (A) (A) (A) (A) (A) (A) (A) (A) (A) (A) (A)
                 (A) (A) (A) (A) (A) (A) (A) (A) (A) (A) (A) (A)
                 (A) (A) (A) (A) (A) (A) (A) (A) (A) (A)
 Harris functional with IExCor=  205 diagonalized for initial guess.
 ExpMin= 4.38D-02 ExpMax= 5.48D+03 ExpMxC= 8.25D+02 IAcc=2 IRadAn=         0 AccDes= 0.00D+00
 HarFok:  IExCor=  205 AccDes= 0.00D+00 IRadAn=         0 IDoV= 1
 ScaDFX=  1.000000  1.000000  1.000000  1.000000
 FoFCou: FMM=F IPFlag=           0 FMFlag=      100000 FMFlg1=           0
         NFxFlg=           0 DoJE=T BraDBF=F KetDBF=T FulRan=T
         Omega=  0.000000  0.000000  1.000000  0.000000  0.000000 ICntrl=     500 IOpCl=  0
         NMat0=    1 NMatS0=    1 NMatT0=    0 NMatD0=    1 NMtDS0=    0 NMtDT0=    0
         I1Cent=           4 NGrid=           0.
 Petite list used in FoFCou.
 Requested convergence on RMS density matrix=1.00D-08 within 128 cycles.
 Requested convergence on MAX density matrix=1.00D-06.
 Requested convergence on             energy=1.00D-06.
 No special actions if energy rises.
 Keep R1 ints in memory in canonical form, NReq=2738529.
 SCF Done:  E(RHF) =  -207.860485758     A.U. after   15 cycles
             Convg  =    0.8522D-08             -V/T =  2.0007
 Calling FoFJK, ICntrl=      2127 FMM=F ISym2X=0 I1Cent= 0 IOpClX= 0 NMat=1 NMatS=1 NMatT=0.
 ***** Axes restored to original set *****
 -------------------------------------------------------------------
 Center     Atomic                   Forces (Hartrees/Bohr)
 Number     Number              X              Y              Z
 -------------------------------------------------------------------
      1        6           0.005838322    0.002635344    0.023446160
      2        1          -0.003782415    0.003256176    0.001670803
      3        1           0.009811023    0.003376402    0.001353659
      4        1          -0.004006524    0.000653259   -0.000120655
      5        6          -0.012735261   -0.038754478   -0.052389420
      6        7          -0.019838656   -0.002671072    0.014800691
      7        1           0.020718591    0.008954443    0.034920366
      8        1           0.004545191    0.021351202   -0.035354245
      9        8          -0.000550271    0.001198725    0.011672641
 -------------------------------------------------------------------
 Cartesian Forces:  Max     0.052389420 RMS     0.018625223

 GradGradGradGradGradGradGradGradGradGradGradGradGradGradGradGradGradGrad
 Berny optimization.
 Using GEDIIS/GDIIS optimizer.
 Internal  Forces:  Max     0.041209785 RMS     0.013644640
 Search for a local minimum.
 Step number   6 out of a maximum of   40
 All quantities printed in internal units (Hartrees-Bohrs-Radians)
 Mixed Optimization -- RFO/linear search
 Update second derivatives using D2CorX and points    6    5
 DE=  8.40D-04 DEPred=-3.79D-02 R=-2.22D-02
 Trust test=-2.22D-02 RLast= 9.98D-01 DXMaxT set to 7.14D-01
 Use linear search instead of GDIIS.
     Eigenvalues ---    0.00210   0.00242   0.00913   0.03894   0.06892
     Eigenvalues ---    0.07443   0.15817   0.15993   0.16509   0.16691
     Eigenvalues ---    0.18147   0.22915   0.25409   0.30668   0.37158
     Eigenvalues ---    0.37286   0.37451   0.37984   0.47687   0.58175
     Eigenvalues ---    0.858551000.000001000.000001000.000001000.00000
     Eigenvalues --- 1000.000001000.000001000.000001000.000001000.00000
 RFO step:  Lambda=-1.10349132D-02 EMin= 2.10172419D-03
 Quartic linear search produced a step of -0.52144.
 Maximum step size (   0.714) exceeded in Quadratic search.
    -- Step size scaled by   0.852
 Iteration  1 RMS(Cart)=  0.07692428 RMS(Int)=  0.02794770
 Iteration  2 RMS(Cart)=  0.03038365 RMS(Int)=  0.00220486
 Iteration  3 RMS(Cart)=  0.00126863 RMS(Int)=  0.00176476
 Iteration  4 RMS(Cart)=  0.00000164 RMS(Int)=  0.00176476
 Iteration  5 RMS(Cart)=  0.00000001 RMS(Int)=  0.00176476
 Variable       Old X    -DE/DX   Delta X   Delta X   Delta X     New X
                                 (Linear)    (Quad)   (Total)
    R1        2.04615  -0.00441  -0.00651   0.00082  -0.00569   2.04046
    R2        2.03634   0.00566   0.00792  -0.00206   0.00586   2.04220
    R3        2.04617  -0.00088   0.00255  -0.00250   0.00005   2.04622
    R4        2.82418   0.00839   0.01387  -0.00443   0.00943   2.83361
    R5        2.73309  -0.02890  -0.04978   0.00785  -0.04193   2.69117
    R6        2.29760  -0.00119   0.00225   0.00288   0.00513   2.30273
    R7        1.96786  -0.03996  -0.06074   0.02113  -0.03961   1.92825
    R8        1.96995  -0.04121  -0.06175   0.02138  -0.04037   1.92958
    A1        1.92769  -0.00372  -0.00675   0.00583  -0.00109   1.92660
    A2        1.88941   0.00374   0.01168  -0.00554   0.00595   1.89536
    A3        1.97212  -0.00410  -0.01618   0.00359  -0.01277   1.95935
    A4        1.88951  -0.00303  -0.01836   0.00871  -0.00947   1.88005
    A5        1.87317   0.01421   0.02773   0.00543   0.03315   1.90633
    A6        1.91042  -0.00726   0.00162  -0.01785  -0.01624   1.89418
    A7        1.98757   0.01374   0.03660  -0.00574   0.03150   2.01907
    A8        2.13438  -0.00276  -0.02224   0.02616   0.00467   2.13905
    A9        2.10690  -0.00602   0.01234   0.00447   0.01734   2.12424
   A10        2.02983  -0.00375   0.03166  -0.07419  -0.04628   1.98356
   A11        2.08956   0.00308  -0.00152  -0.03385  -0.03902   2.05054
   A12        2.03319  -0.00175   0.01425  -0.06002  -0.05083   1.98236
    D1       -0.20111   0.00817   0.11342   0.02545   0.14024  -0.06087
    D2       -2.99624  -0.00610  -0.11049  -0.05137  -0.16325   3.12369
    D3       -2.33042   0.00556   0.11337   0.01208   0.12668  -2.20374
    D4        1.15763  -0.00870  -0.11054  -0.06474  -0.17681   0.98082
    D5        1.90584   0.00510   0.11864   0.00823   0.12840   2.03424
    D6       -0.88930  -0.00917  -0.10527  -0.06859  -0.17509  -1.06439
    D7       -2.29666  -0.01703   0.11829  -0.51093  -0.38898  -2.68564
    D8        1.38987  -0.01180   0.00383  -0.17148  -0.16710   1.22276
    D9        0.50450  -0.00238   0.34008  -0.43065  -0.09111   0.41339
   D10       -2.09216   0.00284   0.22562  -0.09119   0.13076  -1.96140
         Item               Value     Threshold  Converged?
 Maximum Force            0.041210     0.000450     NO 
 RMS     Force            0.013645     0.000300     NO 
 Maximum Displacement     0.279523     0.001800     NO 
 RMS     Displacement     0.103186     0.001200     NO 
 Predicted change in Energy=-1.231663D-02
 GradGradGradGradGradGradGradGradGradGradGradGradGradGradGradGradGradGrad

                          Input orientation:                          
 ---------------------------------------------------------------------
 Center     Atomic      Atomic             Coordinates (Angstroms)
 Number     Number       Type             X           Y           Z
 ---------------------------------------------------------------------
      1          6           0        2.872114    0.297385    0.062026
      2          1           0        3.350913   -0.663777    0.175230
      3          1           0        3.095642    0.931300    0.908238
      4          1           0        3.268103    0.778249   -0.823664
      5          6           0        1.384766    0.177250   -0.085641
      6          7           0        0.874281   -1.151460   -0.130424
      7          1           0       -0.010636   -1.233282   -0.631837
      8          1           0        0.907678   -1.698451    0.731152
      9          8           0        0.657327    1.147298   -0.206908
 ---------------------------------------------------------------------
                    Distance matrix (angstroms):
                    1          2          3          4          5
     1  C    0.000000
     2  H    1.079766   0.000000
     3  H    1.080688   1.773904   0.000000
     4  H    1.082813   1.756157   1.747184   0.000000
     5  C    1.499481   2.154325   2.117423   2.110175   0.000000
     6  N    2.475385   2.542630   3.217321   3.151943   1.424104
     7  H    3.336860   3.503669   4.087322   3.851387   2.057930
     8  H    2.879254   2.710903   3.425512   3.758072   2.100719
     9  O    2.387459   3.268245   2.689904   2.707903   1.218550
                    6          7          8          9
     6  N    0.000000
     7  H    1.020386   0.000000
     8  H    1.021091   1.708046   0.000000
     9  O    2.310240   2.508764   3.006812   0.000000
 Stoichiometry    C2H5NO
 Framework group  C1[X(C2H5NO)]
 Deg. of freedom    21
 Full point group                 C1      NOp   1
 Largest Abelian subgroup         C1      NOp   1
 Largest concise Abelian subgroup C1      NOp   1
                         Standard orientation:                         
 ---------------------------------------------------------------------
 Center     Atomic      Atomic             Coordinates (Angstroms)
 Number     Number       Type             X           Y           Z
 ---------------------------------------------------------------------
      1          6           0        1.333272   -0.466256   -0.020857
      2          1           0        1.297744   -1.545411   -0.028497
      3          1           0        1.898666   -0.114234    0.830199
[...]
     Eigenvalues --   165.60441 192.95895 347.46309
           X            0.99675   0.08052   0.00000
           Y           -0.08052   0.99675   0.00000
           Z            0.00000   0.00000   1.00000
 This molecule is an asymmetric top.
 Rotational symmetry number  1.
 Rotational temperatures (Kelvin)      0.52302     0.44887     0.24927
 Rotational constants (GHZ):          10.89791     9.35298     5.19405
 Zero-point vibrational energy     209659.9 (Joules/Mol)
                                   50.10993 (Kcal/Mol)
 Warning -- explicit consideration of   5 degrees of freedom as
           vibrations may cause significant error
 Vibrational temperatures:     46.77   654.87   792.93   860.80   889.05
          (Kelvin)           1050.14  1327.03  1591.92  1715.34  1790.19
                             2146.96  2259.46  2334.20  2354.51  2608.56
                             2653.02  4609.01  4699.71  4792.36  5524.50
                             5731.21
 
 Zero-point correction=                           0.079855 (Hartree/Particle)
 Thermal correction to Energy=                    0.084543
 Thermal correction to Enthalpy=                  0.085487
 Thermal correction to Gibbs Free Energy=         0.051984
 Sum of electronic and zero-point Energies=           -207.814225
 Sum of electronic and thermal Energies=              -207.809537
 Sum of electronic and thermal Enthalpies=            -207.808593
 Sum of electronic and thermal Free Energies=         -207.842096
 
                     E (Thermal)             CV                S
                      KCal/Mol        Cal/Mol-Kelvin    Cal/Mol-Kelvin
 Total                   53.051             14.642             70.512
 Electronic               0.000              0.000              0.000
 Translational            0.889              2.981             38.147
 Rotational               0.889              2.981             23.922
 Vibrational             51.274              8.681              8.443
 Vibration     1          0.594              1.983              5.670
 Vibration     2          0.813              1.349              0.780
 Vibration     3          0.906              1.137              0.542
 Vibration     4          0.956              1.035              0.453
 Vibration     5          0.978              0.994              0.420
                       Q            Log10(Q)             Ln(Q)
 Total Bot       0.122709D-23        -23.911122        -55.057393
 Total V=0       0.660187D+13         12.819667         29.518374
 Vib (Bot)       0.182459D-35        -35.738834        -82.291706
 Vib (Bot)    1  0.636820D+01          0.804017          1.851317
 Vib (Bot)    2  0.375183D+00         -0.425756         -0.980340
 Vib (Bot)    3  0.284450D+00         -0.545994         -1.257198
 Vib (Bot)    4  0.250020D+00         -0.602025         -1.386213
 Vib (Bot)    5  0.237184D+00         -0.624915         -1.438919
 Vib (V=0)       0.981646D+01          0.991955          2.284061
 Vib (V=0)    1  0.688780D+01          0.838080          1.929751
 Vib (V=0)    2  0.112511D+01          0.051195          0.117881
 Vib (V=0)    3  0.107525D+01          0.031509          0.072553
 Vib (V=0)    4  0.105903D+01          0.024907          0.057350
 Vib (V=0)    5  0.105340D+01          0.022595          0.052027
 Electronic      0.100000D+01          0.000000          0.000000
 Translational   0.178297D+08          7.251143         16.696374
 Rotational      0.377198D+05          4.576569         10.537940
 ***** Axes restored to original set *****
 -------------------------------------------------------------------
 Center     Atomic                   Forces (Hartrees/Bohr)
 Number     Number              X              Y              Z
 -------------------------------------------------------------------
      1        6          -0.000005050   -0.000001001   -0.000001143
      2        1           0.000000641    0.000003813   -0.000000252
      3        1           0.000005338    0.000002992    0.000001603
      4        1           0.000000394    0.000003285    0.000002326
      5        6           0.000003945   -0.000016737   -0.000002884
      6        7           0.000002226    0.000007346   -0.000000182
      7        1          -0.000005934   -0.000002539    0.000001118
      8        1          -0.000001728   -0.000001840   -0.000000848
      9        8           0.000000168    0.000004681    0.000000264
 -------------------------------------------------------------------
 Cartesian Forces:  Max     0.000016737 RMS     0.000004448

 GradGradGradGradGradGradGradGradGradGradGradGradGradGradGradGradGradGrad
 Berny optimization.
 Internal  Forces:  Max     0.000013923 RMS     0.000004008
 Search for a local minimum.
 Step number   1 out of a maximum of    2
 All quantities printed in internal units (Hartrees-Bohrs-Radians)
 Second derivative matrix not updated -- analytic derivatives used.
     Eigenvalues ---    0.00007   0.01352   0.02015   0.04663   0.06848
     Eigenvalues ---    0.06921   0.13145   0.14351   0.15111   0.15623
     Eigenvalues ---    0.16849   0.25924   0.27787   0.37216   0.37703
     Eigenvalues ---    0.38326   0.39193   0.50249   0.54110   0.55177
     Eigenvalues ---    0.848711000.000001000.000001000.000001000.00000
     Eigenvalues --- 1000.000001000.000001000.000001000.000001000.00000
 Angle between quadratic step and forces=  77.37 degrees.
 Linear search not attempted -- first point.
 Iteration  1 RMS(Cart)=  0.00009894 RMS(Int)=  0.00000001
 Iteration  2 RMS(Cart)=  0.00000001 RMS(Int)=  0.00000000
 Variable       Old X    -DE/DX   Delta X   Delta X   Delta X     New X
                                 (Linear)    (Quad)   (Total)
    R1        2.04849   0.00000   0.00000  -0.00001  -0.00001   2.04849
    R2        2.03710   0.00000   0.00000   0.00001   0.00001   2.03711
    R3        2.04849   0.00000   0.00000  -0.00001  -0.00001   2.04849
    R4        2.84243   0.00000   0.00000   0.00000   0.00000   2.84243
    R5        2.56358   0.00000   0.00000  -0.00001  -0.00001   2.56356
    R6        2.32065   0.00000   0.00000   0.00001   0.00001   2.32066
    R7        1.87670   0.00001   0.00000   0.00001   0.00001   1.87672
    R8        1.87208   0.00000   0.00000   0.00000   0.00000   1.87208
    A1        1.90470   0.00000   0.00000  -0.00003  -0.00003   1.90468
    A2        1.88846   0.00000   0.00000   0.00001   0.00001   1.88847
    A3        1.93166   0.00000   0.00000   0.00002   0.00002   1.93168
    A4        1.90470   0.00000   0.00000  -0.00003  -0.00003   1.90468
    A5        1.90229   0.00000   0.00000   0.00001   0.00001   1.90231
    A6        1.93167   0.00000   0.00000   0.00001   0.00001   1.93168
    A7        2.02749   0.00001   0.00000   0.00005   0.00005   2.02755
    A8        2.13511  -0.00001   0.00000  -0.00004  -0.00004   2.13507
    A9        2.12058   0.00000   0.00000  -0.00001  -0.00001   2.12057
   A10        2.07491   0.00000   0.00000   0.00000   0.00000   2.07491
   A11        2.13863   0.00000   0.00000   0.00002   0.00002   2.13865
   A12        2.06964   0.00000   0.00000  -0.00002  -0.00002   2.06963
    D1       -1.04695   0.00000   0.00000   0.00016   0.00016  -1.04679
    D2        2.09464   0.00000   0.00000   0.00017   0.00017   2.09480
    D3        3.14142   0.00000   0.00000   0.00017   0.00017   3.14159
    D4       -0.00018   0.00000   0.00000   0.00018   0.00018   0.00000
    D5        1.04659   0.00000   0.00000   0.00019   0.00019   1.04679
    D6       -2.09500   0.00000   0.00000   0.00020   0.00020  -2.09481
    D7       -3.14153   0.00000   0.00000  -0.00007  -0.00007   3.14159
    D8        0.00002   0.00000   0.00000  -0.00002  -0.00002   0.00000
    D9        0.00007   0.00000   0.00000  -0.00007  -0.00007   0.00000
   D10       -3.14157   0.00000   0.00000  -0.00002  -0.00002   3.14159
         Item               Value     Threshold  Converged?
 Maximum Force            0.000014     0.000450     YES
 RMS     Force            0.000004     0.000300     YES
 Maximum Displacement     0.000281     0.001800     YES
 RMS     Displacement     0.000099     0.001200     YES
 Predicted change in Energy=-1.102836D-09
 Optimization completed.
    -- Stationary point found.
                           ----------------------------
                           !   Optimized Parameters   !
                           ! (Angstroms and Degrees)  !
 --------------------------                            --------------------------
 ! Name  Definition              Value          Derivative Info.                !
 --------------------------------------------------------------------------------
 ! R1    R(1,2)                  1.084          -DE/DX =    0.0                 !
 ! R2    R(1,3)                  1.078          -DE/DX =    0.0                 !
 ! R3    R(1,4)                  1.084          -DE/DX =    0.0                 !
 ! R4    R(1,5)                  1.5041         -DE/DX =    0.0                 !
 ! R5    R(5,6)                  1.3566         -DE/DX =    0.0                 !
 ! R6    R(5,9)                  1.228          -DE/DX =    0.0                 !
 ! R7    R(6,7)                  0.9931         -DE/DX =    0.0                 !
 ! R8    R(6,8)                  0.9907         -DE/DX =    0.0                 !
 ! A1    A(2,1,3)              109.1314         -DE/DX =    0.0                 !
 ! A2    A(2,1,4)              108.2009         -DE/DX =    0.0                 !
 ! A3    A(2,1,5)              110.6759         -DE/DX =    0.0                 !
 ! A4    A(3,1,4)              109.1315         -DE/DX =    0.0                 !
 ! A5    A(3,1,5)              108.9935         -DE/DX =    0.0                 !
 ! A6    A(4,1,5)              110.6766         -DE/DX =    0.0                 !
 ! A7    A(1,5,6)              116.1668         -DE/DX =    0.0                 !
 ! A8    A(1,5,9)              122.3328         -DE/DX =    0.0                 !
 ! A9    A(6,5,9)              121.5004         -DE/DX =    0.0                 !
 ! A10   A(5,6,7)              118.8837         -DE/DX =    0.0                 !
 ! A11   A(5,6,8)              122.5345         -DE/DX =    0.0                 !
 ! A12   A(7,6,8)              118.5818         -DE/DX =    0.0                 !
 ! D1    D(2,1,5,6)            -59.986          -DE/DX =    0.0                 !
 ! D2    D(2,1,5,9)            120.0138         -DE/DX =    0.0                 !
 ! D3    D(3,1,5,6)            179.9899         -DE/DX =    0.0                 !
 ! D4    D(3,1,5,9)             -0.0102         -DE/DX =    0.0                 !
 ! D5    D(4,1,5,6)             59.9654         -DE/DX =    0.0                 !
 ! D6    D(4,1,5,9)           -120.0348         -DE/DX =    0.0                 !
 ! D7    D(1,5,6,7)            180.0038         -DE/DX =    0.0                 !
 ! D8    D(1,5,6,8)              0.0011         -DE/DX =    0.0                 !
 ! D9    D(9,5,6,7)              0.0039         -DE/DX =    0.0                 !
 ! D10   D(9,5,6,8)            180.0012         -DE/DX =    0.0                 !
 --------------------------------------------------------------------------------
 GradGradGradGradGradGradGradGradGradGradGradGradGradGradGradGradGradGrad

 1|1|UNPC-MSI|Freq|RHF|6-31+G|C2H5N1O1|GAMING|22-Nov-2023|0||#N Geom=Al
 lCheck Guess=TCheck SCRF=Check GenChk RHF/6-31+G Freq||Title Card Requ
 ired||0,1|C,2.8273270969,0.2845846129,0.1467337445|H,3.1834410551,-0.3
 431641143,0.9555624415|H,3.1057946611,1.3070873618,0.3442194084|H,3.30
 34820108,-0.0424789552,-0.7705421776|C,1.3303278746,0.1991514124,0.027
 7536961|N,0.8194112319,-1.0323716428,-0.222524918|H,-0.1645969451,-1.1
 350061283,-0.3088959409|H,1.3903419392,-1.8357209484,-0.3229041284|O,0
 .6046587655,1.1824292818,0.1487697145||Version=IA32W-G09RevA.02|State=
 1-A|HF=-207.8940801|RMSD=2.078e-009|RMSF=4.448e-006|ZeroPoint=0.079855
 3|Thermal=0.0845429|Dipole=0.9219595,-1.5978897,-0.2145698|DipoleDeriv
 =-0.2380359,-0.0346599,-0.0303661,-0.0105994,0.0047516,-0.0193502,-0.0
 261956,-0.0210239,0.1061,0.0516877,0.0087803,-0.0098595,0.0432817,0.01
 41874,0.1084043,-0.0564986,0.0931712,-0.0044044,0.0575475,-0.0073205,-
 0.0048457,-0.0745015,-0.0386973,-0.0308918,-0.0165411,-0.0262202,0.103
 1679,0.0399724,0.014321,0.0247723,0.0328277,0.0753359,-0.0762173,0.080
 6663,-0.0646718,-0.0538691,1.264938,-0.0287795,0.0549229,-0.0649959,2.
 07831,0.2876387,0.0486162,0.2901541,0.4568812,-0.5537551,-0.4637047,-0
 .0561356,-0.1797743,-1.2674301,-0.0750091,-0.0066331,-0.0947249,-0.925
 9788,0.1956019,0.0170251,-0.0131313,0.0032343,0.1807499,-0.0427241,-0.
 0155412,-0.0417838,0.4186967,0.181749,0.0249199,-0.0131526,0.0221741,0
 .2255076,-0.0346937,-0.0136276,-0.034506,0.4263199,-0.9997055,0.469418
 4,0.0477956,0.2283534,-1.2727151,-0.1171568,0.0057547,-0.1003947,-0.52
 69133|Polar=32.0808806,-2.7258825,36.8180984,0.1349246,2.1666878,23.69
 38809|PolarDeriv=4.6443553,2.5033392,-1.8142723,1.2120517,0.0284306,-2
 .2872626,1.1072928,-3.4782426,-3.6721034,-0.073442,-2.1562442,3.433025
 4,1.0942834,0.0530157,-1.9672523,-4.1089251,3.020763,1.0622363,2.10245
 53,-1.6776561,0.7804986,1.9116675,-0.3654062,1.3120195,-1.6528089,1.75
 76603,-2.4765123,-0.5965653,2.3678106,-2.0322171,1.8406914,-0.7704695,
 1.7806049,2.4557806,-2.2902283,4.627594,0.9863337,1.8514754,1.3908147,
 0.2917577,0.2242713,0.4139141,1.9775502,2.3154386,6.7085853,0.3269766,
 1.0496598,0.5911446,0.2664193,0.2666486,0.8564598,1.1125904,1.3233544,
 0.6871575,3.0446576,-1.0221762,0.7576896,-2.6107868,0.2038721,1.605513
 6,-0.9924013,1.6290411,-0.7325936,0.3037033,-1.3660731,-1.3971506,-2.7
 033803,0.496883,-0.8496442,2.9301864,-1.4616872,-5.645008,-3.4230221,-
 3.3133564,3.3832152,-0.94465,0.3314298,1.0589322,-0.7759626,1.9067032,
 -4.822306,0.0865263,-0.4489172,0.7094738,-0.4865425,0.1144258,0.166081
 3,0.7840927,-2.2121297,-0.4619829,3.7302491,1.5848551,-1.2911908,0.661
 4328,0.247506,-1.1333732,0.7147484,-1.4567485,1.3163305,0.0409999,0.86
 3233,-1.9165647,0.4614261,0.0968011,0.8633841,-0.4720129,-1.837238,-1.
 213439,-7.4124319,-2.3503631,-2.134792,-0.8661094,-0.4544813,-0.543497
 7,-0.5017497,-0.9933776,-1.3396476,-0.1219334,-0.2564777,-0.1620379,-0
 .5411183,-0.2485633,-0.3309985,-0.5245877,-0.212926,-0.1794428,1.63273
 39,-1.7505319,2.6354908,-0.2095261,0.3169712,0.260189,-1.5120558,1.198
 359,-6.0367137,0.1086557,-0.8971189,-0.3123575,-0.1557419,0.0971795,-0
 .7844023,0.0471576,-0.3711623,-0.1157654,-5.3053309,4.1744139,-3.70745
 37,0.5541627,-0.5325936,-0.6864351,1.6353869,-2.8788335,11.0549609,-0.
 0749211,0.8441277,1.086684,0.2239628,-0.1059209,0.2657672,-2.2242821,4
 .0412542,1.2386502|HyperPolar=-12.9553697,-20.8091583,50.4799457,34.35
 29423,-6.6928083,6.6650778,19.6361157,16.5358776,-24.495325,-11.091969
 2|PG=C01 [X(C2H5N1O1)]|NImag=0||0.55397807,0.00165907,0.68426777,-0.00
 337847,0.01364375,0.60880363,-0.08758445,0.04987896,-0.07138191,0.0931
 9231,0.05157815,-0.15304741,0.12409780,-0.05818639,0.16230551,-0.07077
 905,0.12311873,-0.21373529,0.07713691,-0.13860003,0.23174471,-0.076950
 43,-0.06474713,-0.01259923,0.00370288,0.01239502,0.00301335,0.08457453
 ,-0.07616823,-0.33084942,-0.05283744,-0.00571175,-0.01799595,-0.005154
 01,0.07972186,0.35679158,-0.01458927,-0.05204375,-0.06802214,0.0082449
 7,0.02890875,0.00656788,0.01586192,0.05791039,0.06737459,-0.11195025,0
 .03329726,0.10568385,0.00686267,-0.00429241,-0.01126942,0.00501141,-0.
 00285205,-0.00929205,0.11983678,0.03521700,-0.08267972,-0.07473232,-0.
 01067128,0.00752695,0.02049466,0.01683978,-0.00791110,-0.03179225,-0.0
 4051468,0.08366017,0.10571441,-0.07400467,-0.25974065,0.01310030,-0.01
 018888,-0.02407957,0.00252411,-0.00035848,-0.00482513,-0.11623143,0.08
 261228,0.28374842,-0.22622094,-0.01784922,-0.01106195,-0.01011994,-0.0
 0160130,0.00259805,-0.01180018,0.00408662,0.00002266,-0.01470058,-0.00
 087603,-0.00513397,0.83203368,-0.01621045,-0.11119305,-0.00101332,0.02
 792659,0.00051828,0.00225304,-0.04663715,-0.00441697,-0.00368110,0.015
 27291,-0.00061160,-0.00020985,-0.15489553,0.90111525,-0.01078015,-0.00
 112686,-0.11278433,-0.03390280,-0.00453820,-0.00005713,-0.00881271,-0.
 00015461,-0.00254278,0.03932423,0.00340552,0.00565245,0.01211397,0.099
 40028,0.28752294,-0.02099933,-0.04682209,-0.01063428,0.00097219,-0.001
 04059,-0.00030394,-0.00913936,-0.00068762,-0.00089645,0.00145749,-0.00
 103406,-0.00002005,-0.22701687,-0.07445720,-0.02350985,0.97535495,-0.0
 0664007,-0.00200325,-0.00334580,-0.00186924,-0.00037456,-0.00087188,0.
 00156365,0.00104804,-0.00006162,-0.00068204,-0.00042526,0.00022722,-0.
 09644875,-0.31801969,-0.04896662,-0.07431178,0.90494159,-0.00362760,-0
 .00614092,0.01320460,0.00340610,0.00005886,0.00109055,-0.00050418,-0.0
 0021772,0.00195154,-0.00381213,-0.00066964,0.00065766,-0.02734637,-0.0
 4744122,-0.08584143,0.05028145,0.14106796,0.09444842,0.00243513,-0.001
 95280,-0.00050892,0.00006916,0.00025594,-0.00008248,-0.00048906,0.0001
 7039,-0.00005617,0.00015889,0.00019898,0.00015285,-0.01188322,0.000945
 15,-0.00097481,-0.51450054,-0.04313075,-0.04191135,0.53220838,0.000525
 47,-0.00580373,-0.00182239,-0.00010877,0.00016659,-0.00029340,-0.00171
 671,0.00009371,-0.00023277,0.00011789,0.00002916,0.00026625,-0.0498980
 1,0.00600921,-0.00320808,-0.03876757,-0.09624471,-0.01594582,0.0502193
 8,0.08220137,-0.00007633,-0.00199496,0.00450468,0.00075935,-0.00010852
 ,0.00015356,-0.00038519,-0.00010133,0.00069942,-0.00076627,0.00011273,
 0.00020174,-0.00983952,0.00033132,0.00387116,-0.04115412,-0.01625115,-
 0.02597011,0.04475105,0.01522385,0.02070468,-0.00012596,-0.00030453,-0
 .00005478,-0.00034439,-0.00041348,-0.00055160,-0.00005706,0.00037082,0
 .00012219,-0.00057250,-0.00059768,0.00039747,0.01813686,-0.01530597,-0
 .00122365,-0.24527353,0.20911498,0.02036327,-0.00917682,0.03346856,0.0
 0516805,0.23707465,-0.00023940,0.00168728,0.00029550,-0.00060906,-0.00
 006593,-0.00038644,0.00036651,0.00040113,0.00024967,-0.00107180,-0.000
 25416,0.00042896,0.02956589,-0.01761755,-0.00055528,0.20552782,-0.3762
 0339,-0.04890622,-0.00901658,0.01090855,0.00119891,-0.22038960,0.38483
 979,-0.00004345,0.00029200,-0.00005775,-0.00128415,-0.00005246,-0.0008
 2609,0.00012142,0.00024967,-0.00083189,0.00101312,0.00014065,-0.000409
 48,0.00660080,-0.00367556,-0.00282496,0.01973897,-0.04865788,-0.020885
 08,-0.00224151,0.00415467,0.00100604,-0.02272502,0.04981763,0.01836321
 ,-0.03258185,0.04684049,0.00393568,-0.00675042,0.00130507,0.00023817,0
 .00514725,0.00106995,0.00058219,-0.00610391,0.00143796,-0.00050369,-0.
 34842882,0.26336165,0.02776578,0.03914498,0.01240399,0.00315081,0.0011
 7808,0.00615976,0.00154297,0.00033875,-0.00413378,-0.00118018,0.348055
 93,0.01027845,-0.00037847,-0.00428577,-0.00064907,0.00096650,-0.000560
 66,0.00221417,0.00283898,0.00074268,0.00072492,0.00066556,0.00122718,0
 .28791633,-0.45578387,-0.04425615,0.03159308,-0.11271878,-0.02180529,0
 .00231030,0.00263985,0.00158916,-0.00594311,-0.00369571,-0.00226873,-0
 .32844508,0.56546593,-0.00244008,-0.00174331,0.02782723,0.00392123,0.0
 0042268,-0.00085862,0.00078051,0.00066351,-0.00037149,-0.00464991,0.00
 042838,-0.00120544,0.03204632,-0.04596358,-0.09299593,0.00649826,-0.02
 314022,0.02134385,0.00087134,0.00185770,-0.00517118,-0.00149594,-0.002
 14273,0.00646600,-0.03553172,0.06961757,0.04496556||0.00000505,0.00000
 100,0.00000114,-0.00000064,-0.00000381,0.00000025,-0.00000534,-0.00000
 299,-0.00000160,-0.00000039,-0.00000329,-0.00000233,-0.00000394,0.0000
 1674,0.00000288,-0.00000223,-0.00000735,0.00000018,0.00000593,0.000002
 54,-0.00000112,0.00000173,0.00000184,0.00000085,-0.00000017,-0.0000046
 8,-0.00000026|||@


 IBM COMPATIBILITY IS LIKE PREGNANCY. YOU ARE OR
 OR YOU ARE NOT. -- ADAM OSBORNE
 Job cpu time:  0 days  0 hours  0 minutes  3.0 seconds.
 File lengths (MBytes):  RWF=      7 Int=      0 D2E=      0 Chk=      1 Scr=      1
 Normal termination of Gaussian 09 at Wed Nov 22 08:29:27 2023.
